 Gaussian 09, Revision D.01,
 Gaussian 09:  AS64L-G09RevD.01 24-Apr-2013

 --------------------------------------------------
 # opt=maxcyc=500 freq hf/cc-pvdz geom=connectivity
 --------------------------------------------------

 -----
 Title
 -----
 Symbolic Z-matrix:
 Charge =  0 Multiplicity = 1

 SCF Done:  E(RHF) =  -311.635651843     A.U. after   12 cycles
 Optimization completed.
    -- Stationary point found.
 Normal termination of Gaussian 09 at Wed Oct  6 23:24:28 2021.

 ----------------------------------------------------------------
 #N Geom=AllCheck Guess=TCheck SCRF=Check GenChk RHF/CC-pVDZ Freq
 ----------------------------------------------------------------

 Structure from the checkpoint file:  "/blue/chm6586/le.chen/hw3/f2co/freq/Gau-121508.chk"
 -----
 Title
 -----
 Charge =  0 Multiplicity = 1

                         Standard orientation:
 ---------------------------------------------------------------------
 Center     Atomic      Atomic             Coordinates (Angstroms)
 Number     Number       Type             X           Y           Z
 ---------------------------------------------------------------------
      1          6           0        0.000000    0.000000    0.136582
      2          8           0        0.000000    0.000000    1.290164
      3          9           0        0.000000    1.044954   -0.618934
      4          9           0        0.000000   -1.044954   -0.618934
 ---------------------------------------------------------------------

 SCF Done:  E(RHF) =  -311.635651843     A.U. after    1 cycles

 The electronic state is 1-A1.
 Alpha  occ. eigenvalues --  -26.38933 -26.38929 -20.61240 -11.52889  -1.77480
 Alpha  occ. eigenvalues --   -1.69163  -1.48487  -0.95848  -0.87054  -0.82032
 Alpha  occ. eigenvalues --   -0.80373  -0.72148  -0.69875  -0.69763  -0.57029
 Alpha  occ. eigenvalues --   -0.54855
 Alpha virt. eigenvalues --    0.18477   0.29584   0.46209   0.48294   0.58883
 Alpha virt. eigenvalues --    0.64722   0.67394   0.91339   1.07622   1.23124
 Alpha virt. eigenvalues --    1.27201   1.27677   1.30948   1.31381   1.44556

 Mulliken charges:
               1
     1  C    0.661517
     2  O   -0.272260
     3  F   -0.194628
     4  F   -0.194628
 Sum of Mulliken charges =   0.00000

 Dipole moment (field-independent basis, Debye):
    X=              0.0000    Y=              0.0000    Z=             -1.1750  Tot=              1.1750
 Quadrupole moment (field-independent basis, Debye-Ang):
   XX=            -18.2475   YY=            -21.0845   ZZ=            -23.1651
   XY=              0.0000   XZ=              0.0000   YZ=              0.0000

  Exact polarizability:   7.444   0.000  11.112   0.000   0.000  15.356
 Approx polarizability:   7.049   0.000   9.828   0.000   0.000  14.444

                      1                      2                      3
                     A1                     B2                     B1
 Frequencies --    637.4479               687.7046               883.4070
 Red. masses --     17.6744                17.0058                12.7424
 Frc consts  --      4.2314                 4.7386                 5.8590
 IR Inten    --      7.4323                15.5812                72.4029
 Raman Activ --      0.8883                 2.1295                 1.2455

                      4                      5                      6
                     A1                     B2                     A1
 Frequencies --   1084.2240              1441.7500              2184.6609
 Red. masses --     17.2485                13.2107                13.1654
 Frc consts  --     11.9465                16.1792                37.0214
 IR Inten    --     63.4345               521.1033               650.1109
 Raman Activ --      4.4835                 0.1558                 6.9418

 - Thermochemistry -
 -------------------
 Temperature   298.150 Kelvin.  Pressure   1.00000 Atm.
 Atom     1 has atomic number  6 and mass  12.00000

 Molecular mass:    65.99172 amu.
 Principal axes and moments of inertia in atomic units:
                           1         2         3
     Eigenvalues --   147.77123 148.16280 295.93403
           X            0.00000   0.00000   1.00000
           Y            1.00000   0.00000   0.00000
           Z            0.00000   1.00000   0.00000
 This molecule is an asymmetric top.
 Rotational symmetry number  2.
 Rotational temperatures (Kelvin)      0.58613     0.58459     0.29268
 Rotational constants (GHZ):          12.21308    12.18080     6.09846
 Zero-point vibrational energy      41386.0 (Joules/Mol)
                                    9.89148 (Kcal/Mol)
 Vibrational temperatures:    917.14   989.45  1271.02  1559.95  2074.35
          (Kelvin)           3143.24

 Zero-point correction=                           0.015763 (Hartree/Particle)
 Thermal correction to Energy=                    0.018944
 Thermal correction to Enthalpy=                  0.019889
 Thermal correction to Gibbs Free Energy=        -0.009299
 Sum of electronic and zero-point Energies=           -311.619889
 Sum of electronic and thermal Energies=              -311.616707
 Sum of electronic and thermal Enthalpies=            -311.615763
 Sum of electronic and thermal Free Energies=         -311.644951

                     E (Thermal)             CV                S
                      KCal/Mol        Cal/Mol-Kelvin    Cal/Mol-Kelvin
 Total                   11.888              8.682             61.430
 Electronic               0.000              0.000              0.000
 Translational            0.889              2.981             38.479
 Rotational               0.889              2.981             22.009
 Vibrational             10.110              2.721              0.942

 Optimization completed.
    -- Stationary point found.
 Normal termination of Gaussian 09 at Wed Oct  6 23:24:31 2021.
