 Gaussian 09, Revision D.01,
 Gaussian 09:  AS64L-G09RevD.01 24-Apr-2013

 --------------------------------------------------
 # opt=maxcyc=500 freq hf/cc-pvtz geom=connectivity
 --------------------------------------------------

 -----
 Title
 -----
 Symbolic Z-matrix:
 Charge =  0 Multiplicity = 1

 SCF Done:  E(RHF) =  -311.740188990     A.U. after   12 cycles
 Optimization completed.
    -- Stationary point found.
 Normal termination of Gaussian 09 at Wed Oct  6 23:24:38 2021.

 ----------------------------------------------------------------
 #N Geom=AllCheck Guess=TCheck SCRF=Check GenChk RHF/CC-pVTZ Freq
 ----------------------------------------------------------------

 Structure from the checkpoint file:  "/blue/chm6586/le.chen/hw3/f2co/freq/Gau-121527.chk"
 -----
 Title
 -----
 Charge =  0 Multiplicity = 1

                         Standard orientation:
 ---------------------------------------------------------------------
 Center     Atomic      Atomic             Coordinates (Angstroms)
 Number     Number       Type             X           Y           Z
 ---------------------------------------------------------------------
      1          6           0        0.000000    0.000000    0.134297
      2          8           0        0.000000    0.000000    1.285544
      3          9           0        0.000000    1.040379   -0.616119
      4          9           0        0.000000   -1.040379   -0.616119
 ---------------------------------------------------------------------

 SCF Done:  E(RHF) =  -311.740188990     A.U. after    1 cycles

 The electronic state is 1-A1.
 Alpha  occ. eigenvalues --  -26.38874 -26.38871 -20.60567 -11.51803  -1.77795
 Alpha  occ. eigenvalues --   -1.69401  -1.48371  -0.96279  -0.87614  -0.82758
 Alpha  occ. eigenvalues --   -0.80835  -0.72810  -0.70567  -0.70221  -0.57422
 Alpha  occ. eigenvalues --   -0.55292
 Alpha virt. eigenvalues --    0.18211   0.22437   0.34971   0.35584   0.38067
 Alpha virt. eigenvalues --    0.50637   0.54123   0.68873   0.79151   0.80594
 Alpha virt. eigenvalues --    0.80680   0.83617   0.87906   0.89486   0.95781

 Mulliken charges:
               1
     1  C    0.600316
     2  O   -0.291714
     3  F   -0.154301
     4  F   -0.154301
 Sum of Mulliken charges =   0.00000

 Dipole moment (field-independent basis, Debye):
    X=              0.0000    Y=              0.0000    Z=             -1.3035  Tot=              1.3035
 Quadrupole moment (field-independent basis, Debye-Ang):
   XX=            -18.3952   YY=            -20.9862   ZZ=            -23.2234
   XY=              0.0000   XZ=              0.0000   YZ=              0.0000

  Exact polarizability:   9.740   0.000  13.636   0.000   0.000  17.605
 Approx polarizability:   9.714   0.000  12.142   0.000   0.000  16.094

                      1                      2                      3
                     A1                     B2                     B1
 Frequencies --    644.6458               692.8638               890.9833
 Red. masses --     17.6671                16.9944                12.7424
 Frc consts  --      4.3257                 4.8067                 5.9599
 IR Inten    --      6.4601                14.3596                66.0421
 Raman Activ --      0.7135                 1.6638                 1.0111

                      4                      5                      6
                     A1                     B2                     A1
 Frequencies --   1097.1265              1442.5015              2153.1920
 Red. masses --     17.2665                13.2179                13.1590
 Frc consts  --     12.2452                16.2049                35.9451
 IR Inten    --     59.1859               478.9936               623.6782
 Raman Activ --      4.9813                 0.2633                 7.5254

 - Thermochemistry -
 -------------------
 Temperature   298.150 Kelvin.  Pressure   1.00000 Atm.
 Atom     1 has atomic number  6 and mass  12.00000

 Molecular mass:    65.99172 amu.
 Principal axes and moments of inertia in atomic units:
                           1         2         3
     Eigenvalues --   146.59401 146.86827 293.46229
           X            0.00000   0.00000   1.00000
           Y            1.00000   0.00000   0.00000
           Z            0.00000   1.00000   0.00000
 This molecule is an asymmetric top.
 Rotational symmetry number  2.
 Rotational temperatures (Kelvin)      0.59084     0.58974     0.29514
 Rotational constants (GHZ):          12.31115    12.28816     6.14982
 Zero-point vibrational energy      41398.6 (Joules/Mol)
                                    9.89451 (Kcal/Mol)
 Vibrational temperatures:    927.50   996.88  1281.92  1578.52  2075.44
          (Kelvin)           3097.96

 Zero-point correction=                           0.015768 (Hartree/Particle)
 Thermal correction to Energy=                    0.018941
 Thermal correction to Enthalpy=                  0.019885
 Thermal correction to Gibbs Free Energy=        -0.009279
 Sum of electronic and zero-point Energies=           -311.724421
 Sum of electronic and thermal Energies=              -311.721248
 Sum of electronic and thermal Enthalpies=            -311.720304
 Sum of electronic and thermal Free Energies=         -311.749468

                     E (Thermal)             CV                S
                      KCal/Mol        Cal/Mol-Kelvin    Cal/Mol-Kelvin
 Total                   11.885              8.636             61.380
 Electronic               0.000              0.000              0.000
 Translational            0.889              2.981             38.479
 Rotational               0.889              2.981             21.984
 Vibrational             10.108              2.675              0.917

 Optimization completed.
    -- Stationary point found.
 Normal termination of Gaussian 09 at Wed Oct  6 23:25:07 2021.
