 Gaussian 09, Revision D.01,
 Gaussian 09:  AS64L-G09RevD.01 24-Apr-2013

 ---------------------------------------------------
 # opt=maxcyc=2000 freq hf/cc-pvtz geom=connectivity
 ---------------------------------------------------

 -----
 Title
 -----
 Symbolic Z-matrix:
 Charge =  0 Multiplicity = 1

 SCF Done:  E(RHF) =  -152.976017033     A.U. after   14 cycles
 Optimization completed.
    -- Stationary point found.
 Normal termination of Gaussian 09 at Thu Oct  7 20:31:08 2021.

 ----------------------------------------------------------------
 #N Geom=AllCheck Guess=TCheck SCRF=Check GenChk RHF/CC-pVTZ Freq
 ----------------------------------------------------------------

 Structure from the checkpoint file:  "/blue/chm6586/le.chen/hw3/Gau-130710.chk"
 -----
 Title
 -----
 Charge =  0 Multiplicity = 1

                         Standard orientation:
 ---------------------------------------------------------------------
 Center     Atomic      Atomic             Coordinates (Angstroms)
 Number     Number       Type             X           Y           Z
 ---------------------------------------------------------------------
      1          6           0       -0.241426    0.392422   -0.000092
      2          6           0        1.160554   -0.142733   -0.000095
      3          1           0        1.690075    0.230660   -0.870608
      4          1           0        1.154939   -1.222455   -0.004907
      5          1           0        1.685992    0.222352    0.876478
      6          8           0       -1.215193   -0.276837    0.000013
      7          1           0       -0.324225    1.485998    0.000063
 ---------------------------------------------------------------------

 SCF Done:  E(RHF) =  -152.976017033     A.U. after    1 cycles

 The electronic state is 1-A.
 Alpha  occ. eigenvalues --  -20.55505 -11.32730 -11.23587  -1.41055  -1.02123
 Alpha  occ. eigenvalues --   -0.80202  -0.68028  -0.62977  -0.60811  -0.56336
 Alpha  occ. eigenvalues --   -0.51229  -0.42215
 Alpha virt. eigenvalues --    0.14029   0.15109   0.17609   0.20175   0.21887
 Alpha virt. eigenvalues --    0.29229   0.32267   0.38138   0.40841   0.46736
 Alpha virt. eigenvalues --    0.48127   0.50840   0.58157   0.61853   0.62238

 Mulliken charges:
               1
     1  C    0.208199
     2  C   -0.260605
     3  H    0.095924
     4  H    0.118022
     5  H    0.096023
     6  O   -0.326423
     7  H    0.068860
 Sum of Mulliken charges =   0.00000

 Dipole moment (field-independent basis, Debye):
    X=              2.6965    Y=              1.3356    Z=              0.0006  Tot=              3.0092
 Quadrupole moment (field-independent basis, Debye-Ang):
   XX=            -21.2440   YY=            -17.7802   ZZ=            -17.8279
   XY=             -1.1035   XZ=              0.0012   YZ=             -0.0001

  Exact polarizability:  29.981   1.785  26.405   0.001   0.001  20.235
 Approx polarizability:  25.012   2.787  23.314   0.002   0.000  19.394

                      1                      2                      3
                      A                      A                      A
 Frequencies --    168.1413               546.3155               849.7455
 Red. masses --      1.2425                 2.5678                 1.1230
 Frc consts  --      0.0207                 0.4515                 0.4778
 IR Inten    --      2.3968                19.8724                 0.2053
 Raman Activ --      0.7561                 1.1765                 3.3277

                      4                      5                      6
                      A                      A                      A
 Frequencies --    952.0837              1222.0926              1256.3769
 Red. masses --      2.1819                 1.9849                 1.7676
 Frc consts  --      1.1653                 1.7466                 1.6439
 IR Inten    --      5.8339                27.0064                 0.3903
 Raman Activ --      7.0094                 2.5954                 0.9657

                      7                      8                      9
                      A                      A                      A
 Frequencies --   1508.8414              1543.9636              1577.7220
 Red. masses --      1.2445                 1.2323                 1.0514
 Frc consts  --      1.6692                 1.7308                 1.5420
 IR Inten    --     11.0085                16.5002                19.5019
 Raman Activ --      2.1941                 4.1691                 9.9683

                     10                     11                     12
                      A                      A                      A
 Frequencies --   1590.5723              2002.5856              3074.7690
 Red. masses --      1.0473                 9.7388                 1.0841
 Frc consts  --      1.5611                23.0111                 6.0388
 IR Inten    --      8.4732               242.5041               110.6945
 Raman Activ --      5.9863                10.9862               119.8428

                     13                     14                     15
                      A                      A                      A
 Frequencies --   3160.1876              3212.2777              3270.3233
 Red. masses --      1.0390                 1.0992                 1.1027
 Frc consts  --      6.1132                 6.6828                 6.9482
 IR Inten    --      6.9594                18.0645                17.2929
 Raman Activ --    165.9005                63.1426                47.7972

 - Thermochemistry -
 -------------------
 Temperature   298.150 Kelvin.  Pressure   1.00000 Atm.
 Atom     1 has atomic number  6 and mass  12.00000

 Molecular mass:    44.02621 amu.
 Principal axes and moments of inertia in atomic units:
                           1         2         3
     Eigenvalues --    30.89841 174.43427 194.34709
           X            0.99966  -0.02616   0.00002
           Y            0.02616   0.99966   0.00003
           Z           -0.00002  -0.00003   1.00000
 This molecule is an asymmetric top.
 Rotational symmetry number  1.
 Rotational temperatures (Kelvin)      2.80318     0.49654     0.44567
 Rotational constants (GHZ):          58.40888    10.34625     9.28618
 Zero-point vibrational energy     155131.7 (Joules/Mol)
                                   37.07737 (Kcal/Mol)
 Warning -- explicit consideration of   2 degrees of freedom as
           vibrations may cause significant error
 Vibrational temperatures:    241.92   786.03  1222.59  1369.83  1758.32
          (Kelvin)           1807.64  2170.88  2221.42  2269.99  2288.48
                             2881.27  4423.90  4546.80  4621.75  4705.26

 Zero-point correction=                           0.059087 (Hartree/Particle)
 Thermal correction to Energy=                    0.062878
 Thermal correction to Enthalpy=                  0.063822
 Thermal correction to Gibbs Free Energy=         0.034245
 Sum of electronic and zero-point Energies=           -152.916930
 Sum of electronic and thermal Energies=              -152.913139
 Sum of electronic and thermal Enthalpies=            -152.912195
 Sum of electronic and thermal Free Energies=         -152.941772

                     E (Thermal)             CV                S
                      KCal/Mol        Cal/Mol-Kelvin    Cal/Mol-Kelvin
 Total                   39.457             10.618             62.250
 Electronic               0.000              0.000              0.000
 Translational            0.889              2.981             37.273
 Rotational               0.889              2.981             21.576
 Vibrational             37.679              4.656              3.401
 Vibration     1          0.625              1.882              2.456
 Vibration     2          0.902              1.148              0.552

 Normal termination of Gaussian 09 at Thu Oct  7 20:33:09 2021.
