 Gaussian 09, Revision D.01,
 Gaussian 09:  AS64L-G09RevD.01 24-Apr-2013

 -------------------------------
 #n hf/cc-pvtz Opt=(maxcyc=2000)
 -------------------------------

 -----
 Title
 -----
 Symbolic Z-matrix:
 Charge =  0 Multiplicity = 1

 SCF Done:  E(RHF) =  -152.972149965     A.U. after   14 cycles
 SCF Done:  E(RHF) =  -152.975927792     A.U. after   13 cycles
 SCF Done:  E(RHF) =  -152.975933772     A.U. after   11 cycles
 SCF Done:  E(RHF) =  -152.975783315     A.U. after   12 cycles
 SCF Done:  E(RHF) =  -152.976016066     A.U. after   10 cycles
 SCF Done:  E(RHF) =  -152.976017033     A.U. after    8 cycles
 Optimization completed.
    -- Stationary point found.

                         Standard orientation:
 ---------------------------------------------------------------------
 Center     Atomic      Atomic             Coordinates (Angstroms)
 Number     Number       Type             X           Y           Z
 ---------------------------------------------------------------------
      1          6           0       -0.241426    0.392422   -0.000092
      2          6           0        1.160554   -0.142732   -0.000095
      3          1           0        1.690075    0.230661   -0.870608
      4          1           0        1.154940   -1.222454   -0.004907
      5          1           0        1.685992    0.222353    0.876478
      6          8           0       -1.215193   -0.276837    0.000013
      7          1           0       -0.324225    1.485998    0.000063
 ---------------------------------------------------------------------

 The electronic state is 1-A.
 Alpha  occ. eigenvalues --  -20.55505 -11.32730 -11.23587  -1.41055  -1.02123
 Alpha  occ. eigenvalues --   -0.80202  -0.68028  -0.62977  -0.60811  -0.56336
 Alpha  occ. eigenvalues --   -0.51229  -0.42215
 Alpha virt. eigenvalues --    0.14029   0.15110   0.17609   0.20175   0.21887
 Alpha virt. eigenvalues --    0.29229   0.32267   0.38138   0.40841   0.46736
 Alpha virt. eigenvalues --    0.48127   0.50840   0.58157   0.61853   0.62238

 Mulliken charges:
               1
     1  C    0.208199
     2  C   -0.260605
     3  H    0.095924
     4  H    0.118022
     5  H    0.096022
     6  O   -0.326423
     7  H    0.068860
 Sum of Mulliken charges =   0.00000

 Dipole moment (field-independent basis, Debye):
    X=              2.6965    Y=              1.3356    Z=              0.0006  Tot=              3.0092
 Quadrupole moment (field-independent basis, Debye-Ang):
   XX=            -21.2440   YY=            -17.7802   ZZ=            -17.8279
   XY=             -1.1035   XZ=              0.0012   YZ=             -0.0001

 Normal termination of Gaussian 09 at Thu Oct  7 20:26:46 2021.
