 Gaussian 09, Revision D.01,
 Gaussian 09:  AS64L-G09RevD.01 24-Apr-2013

 ---------------------------
 #hf/6-31g opt=(maxcyc=2000)
 ---------------------------

 -----
 Title
 -----
 Symbolic Z-matrix:
 Charge =  0 Multiplicity = 1

 SCF Done:  E(RHF) =  -117.023987470     A.U. after   11 cycles
 SCF Done:  E(RHF) =  -117.025259545     A.U. after   11 cycles
 SCF Done:  E(RHF) =  -117.025361988     A.U. after   10 cycles
 SCF Done:  E(RHF) =  -117.025410324     A.U. after   10 cycles
 SCF Done:  E(RHF) =  -116.978764360     A.U. after   11 cycles
 SCF Done:  E(RHF) =  -117.025409193     A.U. after   11 cycles
 SCF Done:  E(RHF) =  -117.025528776     A.U. after    8 cycles
 SCF Done:  E(RHF) =  -117.025969604     A.U. after   12 cycles
 SCF Done:  E(RHF) =  -117.000972964     A.U. after   12 cycles
 SCF Done:  E(RHF) =  -117.025939431     A.U. after   11 cycles
 SCF Done:  E(RHF) =  -117.026077520     A.U. after    8 cycles
 SCF Done:  E(RHF) =  -117.027183780     A.U. after   11 cycles
 SCF Done:  E(RHF) =  -117.027984237     A.U. after   11 cycles
 SCF Done:  E(RHF) =  -117.028240588     A.U. after   10 cycles
 SCF Done:  E(RHF) =  -117.028274753     A.U. after   10 cycles
 SCF Done:  E(RHF) =  -117.028275599     A.U. after    8 cycles
 SCF Done:  E(RHF) =  -117.028276412     A.U. after    8 cycles
 SCF Done:  E(RHF) =  -117.028276430     A.U. after    8 cycles
 Optimization completed.
    -- Stationary point found.

                         Standard orientation:
 ---------------------------------------------------------------------
 Center     Atomic      Atomic             Coordinates (Angstroms)
 Number     Number       Type             X           Y           Z
 ---------------------------------------------------------------------
      1          6           0        1.232840   -0.161242   -0.000006
      2          6           0       -0.137151    0.453352    0.000000
      3          1           0        1.799105    0.149696    0.872911
      4          1           0        1.798748    0.148909   -0.873419
      5          1           0        1.182306   -1.243363    0.000541
      6          6           0       -1.276532   -0.220174   -0.000025
      7          1           0       -0.166230    1.530520    0.000051
      8          1           0       -1.301252   -1.294966    0.000053
      9          1           0       -2.227621    0.277589    0.000045
 ---------------------------------------------------------------------

 The electronic state is 1-A.
 Alpha  occ. eigenvalues --  -11.23474 -11.21840 -11.21607  -1.06798  -0.93729
 Alpha  occ. eigenvalues --   -0.75840  -0.64016  -0.58350  -0.56702  -0.52167
 Alpha  occ. eigenvalues --   -0.48395  -0.35603
 Alpha virt. eigenvalues --    0.18763   0.25486   0.28325   0.29719   0.32655
 Alpha virt. eigenvalues --    0.33269   0.34879   0.44762   0.54795   0.70658
 Alpha virt. eigenvalues --    0.75928   0.76615   0.86125   0.86537   0.91362

 Mulliken charges:
               1
     1  C   -0.497382
     2  C   -0.117128
     3  H    0.164990
     4  H    0.165010
     5  H    0.163722
     6  C   -0.361986
     7  H    0.167420
     8  H    0.155955
     9  H    0.159400
 Sum of Mulliken charges =   0.00000

 Dipole moment (field-independent basis, Debye):
    X=              0.3454    Y=              0.0955    Z=              0.0001  Tot=              0.3583
 Quadrupole moment (field-independent basis, Debye-Ang):
   XX=            -19.2553   YY=            -18.9864   ZZ=            -21.9445
   XY=              0.1561   XZ=             -0.0003   YZ=             -0.0001

 Normal termination of Gaussian 09 at Thu Sep 23 22:19:25 2021.
