 Gaussian 09, Revision D.01,
 Gaussian 09:  AS64L-G09RevD.01 24-Apr-2013

 --------------------------------
 #n RHF/6-31G(d) Opt=(MaxCyc=500)
 --------------------------------

 -----
 Title
 -----
 Symbolic Z-matrix:
 Charge =  0 Multiplicity = 1

 SCF Done:  E(RHF) =  -270.843261989     A.U. after   13 cycles
 SCF Done:  E(RHF) =  -270.846374747     A.U. after   11 cycles
 SCF Done:  E(RHF) =  -270.846878110     A.U. after   11 cycles
 SCF Done:  E(RHF) =  -270.847578268     A.U. after   12 cycles
 SCF Done:  E(RHF) =  -270.847714797     A.U. after   10 cycles
 SCF Done:  E(RHF) =  -270.847754137     A.U. after   10 cycles
 SCF Done:  E(RHF) =  -270.847757167     A.U. after    8 cycles
 SCF Done:  E(RHF) =  -270.847757634     A.U. after    8 cycles
 SCF Done:  E(RHF) =  -270.847757772     A.U. after    8 cycles
 Optimization completed.
    -- Stationary point found.

                         Standard orientation:
 ---------------------------------------------------------------------
 Center     Atomic      Atomic             Coordinates (Angstroms)
 Number     Number       Type             X           Y           Z
 ---------------------------------------------------------------------
      1          6           0        3.696912   -0.236541   -0.000099
      2          6           0        2.336509    0.397372   -0.000086
      3          1           0        4.268149    0.068222    0.873274
      4          1           0        4.267757    0.067149   -0.874095
      5          1           0        3.631091   -1.318847    0.000588
      6          6           0        1.187254   -0.262457    0.000142
      7          1           0        2.317023    1.476725   -0.000289
      8          6           0       -0.127029    0.379607    0.000091
      9          1           0        1.194631   -1.341381    0.000371
     10          6           0       -1.282634   -0.277772    0.000095
     11          1           0       -0.134789    1.458466    0.000079
     12          6           0       -2.593484    0.372534    0.000091
     13          1           0       -1.280207   -1.356437    0.000125
     14          6           0       -3.748803   -0.273652   -0.000142
     15          1           0       -2.591734    1.450843    0.000148
     16          1           0       -3.796875   -1.349165   -0.000407
     17          1           0       -4.687396    0.249887   -0.000354
 ---------------------------------------------------------------------

 The electronic state is 1-A.
 Alpha  occ. eigenvalues --  -11.23151 -11.23125 -11.23103 -11.22760 -11.22557
 Alpha  occ. eigenvalues --  -11.22084 -11.21885  -1.10721  -1.06732  -1.00685
 Alpha  occ. eigenvalues --   -0.93019  -0.81595  -0.75782  -0.74798  -0.65010
 Alpha  occ. eigenvalues --   -0.63973  -0.58300  -0.57712  -0.56945  -0.53248
 Alpha  occ. eigenvalues --   -0.52540  -0.50058  -0.48005  -0.45687  -0.38417
 Alpha  occ. eigenvalues --   -0.28526
 Alpha virt. eigenvalues --    0.11054   0.22241   0.24487   0.25959   0.27565
 Alpha virt. eigenvalues --    0.28203   0.28911   0.30132   0.31771   0.32637
 Alpha virt. eigenvalues --    0.33837   0.35406   0.36193   0.43160   0.49856

 Mulliken charges:
               1
     1  C   -0.511618
     2  C   -0.176323
     3  H    0.172378
     4  H    0.172394
     5  H    0.172775
     6  C   -0.172890
     7  H    0.176896
     8  C   -0.181513
     9  H    0.180889
    10  C   -0.195247
    11  H    0.184162
    12  C   -0.130462
    13  H    0.184090
    14  C   -0.415950
    15  H    0.185119
    16  H    0.175183
    17  H    0.180116
 Sum of Mulliken charges =   0.00000

 Dipole moment (field-independent basis, Debye):
    X=              0.5981    Y=              0.1107    Z=             -0.0003  Tot=              0.6083
 Quadrupole moment (field-independent basis, Debye-Ang):
   XX=            -39.9078   YY=            -39.8290   ZZ=            -48.2313
   XY=              0.4281   XZ=              0.0010   YZ=             -0.0002

 Normal termination of Gaussian 09 at Thu Sep 23 22:36:07 2021.
