 Gaussian 09, Revision D.01,
 Gaussian 09:  AS64L-G09RevD.01 24-Apr-2013

 ------------------------------
 #n HF/cc-pvqz Opt=(MaxCyc=500)
 ------------------------------

 -----
 Title
 -----
 Symbolic Z-matrix:
 Charge =  0 Multiplicity = 1

 SCF Done:  E(RHF) =  -113.918133067     A.U. after   12 cycles
 SCF Done:  E(RHF) =  -113.922321468     A.U. after   12 cycles
 SCF Done:  E(RHF) =  -113.922379766     A.U. after    9 cycles
 SCF Done:  E(RHF) =  -113.922382478     A.U. after    7 cycles
 Optimization completed.
    -- Stationary point found.

                         Standard orientation:
 ---------------------------------------------------------------------
 Center     Atomic      Atomic             Coordinates (Angstroms)
 Number     Number       Type             X           Y           Z
 ---------------------------------------------------------------------
      1          6           0        0.000000    0.000000   -0.515851
      2          8           0        0.000000    0.000000    0.660577
      3          1           0        0.000000    0.926545   -1.094756
      4          1           0        0.000000   -0.926545   -1.094756
 ---------------------------------------------------------------------

 The electronic state is 1-A1.
 Alpha  occ. eigenvalues --  -20.57225 -11.33172  -1.42422  -0.86842  -0.70272
 Alpha  occ. eigenvalues --   -0.65997  -0.54897  -0.43962
 Alpha virt. eigenvalues --    0.11676   0.12254   0.17620   0.21810   0.33659
 Alpha virt. eigenvalues --    0.34456   0.34505   0.46805   0.47939   0.54094
 Alpha virt. eigenvalues --    0.54367   0.62955   0.65270   0.67606   0.74497

 Mulliken charges:
               1
     1  C    0.328310
     2  O   -0.365528
     3  H    0.018609
     4  H    0.018609
 Sum of Mulliken charges =   0.00000

 Dipole moment (field-independent basis, Debye):
    X=              0.0000    Y=              0.0000    Z=             -2.6820  Tot=              2.6820
 Quadrupole moment (field-independent basis, Debye-Ang):
   XX=            -11.5949   YY=            -11.4105   ZZ=            -12.0835
   XY=              0.0000   XZ=              0.0000   YZ=              0.0000

 Normal termination of Gaussian 09 at Sun Sep 19 19:15:46 2021.
