 Gaussian 09, Revision D.01,
 Gaussian 09:  AS64L-G09RevD.01 24-Apr-2013

 ----------------------------
 #n HF/6-31g Opt=(MaxCyc=500)
 ----------------------------

 -----
 Title
 -----
 Symbolic Z-matrix:
 Charge =  0 Multiplicity = 1

 SCF Done:  E(RHF) =  -113.807383502     A.U. after   11 cycles
 SCF Done:  E(RHF) =  -113.808357251     A.U. after   10 cycles
 SCF Done:  E(RHF) =  -113.808366539     A.U. after    9 cycles
 Optimization completed.
    -- Stationary point found.

                         Standard orientation:
 ---------------------------------------------------------------------
 Center     Atomic      Atomic             Coordinates (Angstroms)
 Number     Number       Type             X           Y           Z
 ---------------------------------------------------------------------
      1          6           0        0.000000    0.000000   -0.534021
      2          8           0        0.000000    0.000000    0.676108
      3          1           0        0.000000    0.920180   -1.102368
      4          1           0        0.000000   -0.920180   -1.102368
 ---------------------------------------------------------------------

 The electronic state is 1-A1.
 Alpha  occ. eigenvalues --  -20.59361 -11.34911  -1.42639  -0.87951  -0.70799
 Alpha  occ. eigenvalues --   -0.64325  -0.53143  -0.44265
 Alpha virt. eigenvalues --    0.12572   0.24549   0.32683   0.36948   0.73411
 Alpha virt. eigenvalues --    0.82507   0.85374   0.97931   1.15382   1.15712
 Alpha virt. eigenvalues --    1.23780   1.26782   1.38400   1.89138

 Mulliken charges:
               1
     1  C    0.158877
     2  O   -0.454307
     3  H    0.147715
     4  H    0.147715
 Sum of Mulliken charges =   0.00000

 Dipole moment (field-independent basis, Debye):
    X=              0.0000    Y=              0.0000    Z=             -3.0433  Tot=              3.0433
 Quadrupole moment (field-independent basis, Debye-Ang):
   XX=            -11.6382   YY=            -11.4812   ZZ=            -12.4475
   XY=              0.0000   XZ=              0.0000   YZ=              0.0000

 Normal termination of Gaussian 09 at Sun Sep 19 21:15:52 2021.
