 Gaussian 09, Revision D.01,
 Gaussian 09:  AS64L-G09RevD.01 24-Apr-2013

 ------------------------------
 #n HF/cc-pvtz Opt=(MaxCyc=500)
 ------------------------------

 -----
 Title
 -----
 Symbolic Z-matrix:
 Charge =  0 Multiplicity = 1

 SCF Done:  E(RHF) =  -572.856737482     A.U. after   13 cycles
 SCF Done:  E(RHF) =  -572.865570392     A.U. after   12 cycles
 SCF Done:  E(RHF) =  -572.866087568     A.U. after   11 cycles
 SCF Done:  E(RHF) =  -572.866176791     A.U. after   10 cycles
 SCF Done:  E(RHF) =  -572.866177493     A.U. after    7 cycles
 Optimization completed.
    -- Stationary point found.

                         Standard orientation:
 ---------------------------------------------------------------------
 Center     Atomic      Atomic             Coordinates (Angstroms)
 Number     Number       Type             X           Y           Z
 ---------------------------------------------------------------------
      1          6           0        0.000000    0.792555    0.000000
      2          8           0        1.101640    1.148324    0.000000
      3         17           0       -0.466738   -0.903995    0.000000
      4          1           0       -0.878568    1.425990    0.000000
 ---------------------------------------------------------------------

 The electronic state is 1-A'.
 Alpha  occ. eigenvalues -- -104.85844 -20.60670 -11.40887 -10.58435  -8.05097
 Alpha  occ. eigenvalues --   -8.04924  -8.04909  -1.47617  -1.14625  -0.85806
 Alpha  occ. eigenvalues --   -0.72236  -0.67721  -0.61371  -0.48156  -0.47785
 Alpha  occ. eigenvalues --   -0.46982
 Alpha virt. eigenvalues --    0.11537   0.13738   0.21609   0.28093   0.35570
 Alpha virt. eigenvalues --    0.41760   0.46280   0.47731   0.49931   0.50469
 Alpha virt. eigenvalues --    0.57869   0.60173   0.60931   0.64661   0.65787

 Mulliken charges:
               1
     1  C    0.288178
     2  O   -0.253655
     3  Cl  -0.156618
     4  H    0.122095
 Sum of Mulliken charges =   0.00000

 Dipole moment (field-independent basis, Debye):
    X=             -1.9831    Y=              0.7374    Z=              0.0000  Tot=              2.1158
 Quadrupole moment (field-independent basis, Debye-Ang):
   XX=            -25.6936   YY=            -23.3333   ZZ=            -23.2812
   XY=             -3.0885   XZ=              0.0000   YZ=              0.0000

 Normal termination of Gaussian 09 at Sun Sep 19 22:30:48 2021.
