 Gaussian 09, Revision D.01,
 Gaussian 09:  AS64L-G09RevD.01 24-Apr-2013

 -------------------------------
 #n HF/cc-pvqz Opt=(MaxCyc=2000)
 -------------------------------

 -----
 Title
 -----
 Symbolic Z-matrix:
 Charge =  0 Multiplicity = 1

 SCF Done:  E(RHF) =  -572.869376235     A.U. after   14 cycles
 SCF Done:  E(RHF) =  -572.878523784     A.U. after   12 cycles
 SCF Done:  E(RHF) =  -572.879032415     A.U. after   11 cycles
 SCF Done:  E(RHF) =  -572.879121484     A.U. after   10 cycles
 SCF Done:  E(RHF) =  -572.879122213     A.U. after    7 cycles
 Optimization completed.
    -- Stationary point found.

                         Standard orientation:
 ---------------------------------------------------------------------
 Center     Atomic      Atomic             Coordinates (Angstroms)
 Number     Number       Type             X           Y           Z
 ---------------------------------------------------------------------
      1          6           0        0.000000    0.791320    0.000000
      2          8           0        1.100493    1.145867    0.000000
      3         17           0       -0.466274   -0.902436    0.000000
      4          1           0       -0.877285    1.426547    0.000000
 ---------------------------------------------------------------------

 The electronic state is 1-A'.
 Alpha  occ. eigenvalues -- -104.85919 -20.60531 -11.40771 -10.58573  -8.05262
 Alpha  occ. eigenvalues --   -8.05097  -8.05084  -1.47726  -1.14784  -0.85845
 Alpha  occ. eigenvalues --   -0.72362  -0.67887  -0.61535  -0.48297  -0.47928
 Alpha  occ. eigenvalues --   -0.47100
 Alpha virt. eigenvalues --    0.10916   0.11677   0.17667   0.22482   0.25496
 Alpha virt. eigenvalues --    0.30613   0.34900   0.36219   0.37259   0.37550
 Alpha virt. eigenvalues --    0.44488   0.46745   0.48890   0.50797   0.53052

 Mulliken charges:
               1
     1  C    0.315075
     2  O   -0.302717
     3  Cl  -0.109391
     4  H    0.097033
 Sum of Mulliken charges =   0.00000

 Dipole moment (field-independent basis, Debye):
    X=             -1.9906    Y=              0.6828    Z=              0.0000  Tot=              2.1045
 Quadrupole moment (field-independent basis, Debye-Ang):
   XX=            -25.8171   YY=            -23.3349   ZZ=            -23.3467
   XY=             -3.1176   XZ=              0.0000   YZ=              0.0000

 Normal termination of Gaussian 09 at Thu Sep 23 23:58:39 2021.
