 Gaussian 09, Revision D.01,
 Gaussian 09:  AS64L-G09RevD.01 24-Apr-2013

 ------------------------------
 #n HF/cc-pvdz Opt=(MaxCyc=500)
 ------------------------------

 -----
 Title
 -----
 Symbolic Z-matrix:
 Charge =  0 Multiplicity = 1

 SCF Done:  E(RHF) =  -572.806021168     A.U. after   13 cycles
 SCF Done:  E(RHF) =  -572.814154679     A.U. after   12 cycles
 SCF Done:  E(RHF) =  -572.814696436     A.U. after   11 cycles
 SCF Done:  E(RHF) =  -572.814784799     A.U. after   11 cycles
 Optimization completed.
    -- Stationary point found.

                         Standard orientation:
 ---------------------------------------------------------------------
 Center     Atomic      Atomic             Coordinates (Angstroms)
 Number     Number       Type             X           Y           Z
 ---------------------------------------------------------------------
      1          6           0        0.000000    0.796054    0.000000
      2          8           0        1.105762    1.151509    0.000000
      3         17           0       -0.468002   -0.906928    0.000000
      4          1           0       -0.890053    1.429383    0.000000
 ---------------------------------------------------------------------

 The electronic state is 1-A'.
 Alpha  occ. eigenvalues -- -104.84960 -20.61390 -11.41894 -10.57809  -8.04541
 Alpha  occ. eigenvalues --   -8.04215  -8.04189  -1.47778  -1.14394  -0.85605
 Alpha  occ. eigenvalues --   -0.72051  -0.67488  -0.61044  -0.47797  -0.47408
 Alpha  occ. eigenvalues --   -0.46649
 Alpha virt. eigenvalues --    0.12419   0.16321   0.25582   0.36339   0.62226
 Alpha virt. eigenvalues --    0.64248   0.67662   0.71359   0.75629   0.75944
 Alpha virt. eigenvalues --    0.84960   0.90042   0.91647   0.95730   0.97005

 Mulliken charges:
               1
     1  C    0.271643
     2  O   -0.215721
     3  Cl  -0.147650
     4  H    0.091728
 Sum of Mulliken charges =   0.00000

 Dipole moment (field-independent basis, Debye):
    X=             -1.9236    Y=              0.9130    Z=              0.0000  Tot=              2.1293
 Quadrupole moment (field-independent basis, Debye-Ang):
   XX=            -25.5106   YY=            -23.4196   ZZ=            -23.2353
   XY=             -3.0380   XZ=              0.0000   YZ=              0.0000

 Normal termination of Gaussian 09 at Sun Sep 19 22:04:15 2021.
