 Gaussian 09, Revision D.01,
 Gaussian 09:  AS64L-G09RevD.01 24-Apr-2013

 ----------------------------
 #n HF/6-31g Opt=(MaxCyc=500)
 ----------------------------

 -----
 Title
 -----
 Symbolic Z-matrix:
 Charge =  0 Multiplicity = 1

 SCF Done:  E(RHF) =  -572.687511164     A.U. after   13 cycles
 SCF Done:  E(RHF) =  -572.693347824     A.U. after   12 cycles
 SCF Done:  E(RHF) =  -572.694284582     A.U. after   11 cycles
 SCF Done:  E(RHF) =  -572.694391377     A.U. after   11 cycles
 SCF Done:  E(RHF) =  -572.694392195     A.U. after    9 cycles
 Optimization completed.
    -- Stationary point found.

                         Standard orientation:
 ---------------------------------------------------------------------
 Center     Atomic      Atomic             Coordinates (Angstroms)
 Number     Number       Type             X           Y           Z
 ---------------------------------------------------------------------
      1          6           0        0.000000    0.828348    0.000000
      2          8           0        1.129751    1.177232    0.000000
      3         17           0       -0.480160   -0.931598    0.000000
      4          1           0       -0.875285    1.449224    0.000000
 ---------------------------------------------------------------------

 The electronic state is 1-A'.
 Alpha  occ. eigenvalues -- -104.84035 -20.64818 -11.44672 -10.58254  -8.05077
 Alpha  occ. eigenvalues --   -8.04666  -8.04647  -1.50337  -1.14356  -0.87941
 Alpha  occ. eigenvalues --   -0.72791  -0.67446  -0.61471  -0.48334  -0.47661
 Alpha  occ. eigenvalues --   -0.47052
 Alpha virt. eigenvalues --    0.09714   0.15069   0.27336   0.36651   0.57516
 Alpha virt. eigenvalues --    0.62426   0.63330   0.63856   0.72044   0.83489
 Alpha virt. eigenvalues --    0.94088   1.03689   1.10952   1.20241   1.23416

 Mulliken charges:
               1
     1  C    0.140624
     2  O   -0.381287
     3  Cl  -0.001831
     4  H    0.242494
 Sum of Mulliken charges =   0.00000

 Dipole moment (field-independent basis, Debye):
    X=             -2.2107    Y=              1.3853    Z=              0.0000  Tot=              2.6089
 Quadrupole moment (field-independent basis, Debye-Ang):
   XX=            -26.6212   YY=            -24.3831   ZZ=            -23.6812
   XY=             -3.8990   XZ=              0.0000   YZ=              0.0000

 Normal termination of Gaussian 09 at Sun Sep 19 22:28:19 2021.
