 Gaussian 09, Revision D.01,
 Gaussian 09:  AS64L-G09RevD.01 24-Apr-2013

 --------------------------------------------------
 # freq hf/cc-pvdz geom=connectivity opt=maxcyc=500
 --------------------------------------------------

 -----
 Title
 -----
 Symbolic Z-matrix:
 Charge =  0 Multiplicity = 1

 SCF Done:  E(RHF) =  -572.814784799     A.U. after   13 cycles
 Optimization completed.
    -- Stationary point found.
 Normal termination of Gaussian 09 at Wed Oct  6 22:18:47 2021.

 ----------------------------------------------------------------
 #N Geom=AllCheck Guess=TCheck SCRF=Check GenChk RHF/CC-pVDZ Freq
 ----------------------------------------------------------------

 Structure from the checkpoint file:  "/blue/chm6586/le.chen/hw3/clcho/Gau-116905.chk"
 -----
 Title
 -----
 Charge =  0 Multiplicity = 1

                         Standard orientation:
 ---------------------------------------------------------------------
 Center     Atomic      Atomic             Coordinates (Angstroms)
 Number     Number       Type             X           Y           Z
 ---------------------------------------------------------------------
      1          6           0        0.000000    0.796054    0.000000
      2          8           0        1.105762    1.151509    0.000000
      3         17           0       -0.468003   -0.906928    0.000000
      4          1           0       -0.890053    1.429383    0.000000
 ---------------------------------------------------------------------

 SCF Done:  E(RHF) =  -572.814784799     A.U. after    1 cycles

 The electronic state is 1-A'.
 Alpha  occ. eigenvalues -- -104.84960 -20.61390 -11.41894 -10.57809  -8.04541
 Alpha  occ. eigenvalues --   -8.04215  -8.04189  -1.47778  -1.14394  -0.85605
 Alpha  occ. eigenvalues --   -0.72051  -0.67488  -0.61044  -0.47797  -0.47408
 Alpha  occ. eigenvalues --   -0.46649
 Alpha virt. eigenvalues --    0.12419   0.16321   0.25582   0.36339   0.62226
 Alpha virt. eigenvalues --    0.64248   0.67662   0.71359   0.75629   0.75944
 Alpha virt. eigenvalues --    0.84960   0.90042   0.91647   0.95730   0.97005

 Mulliken charges:
               1
     1  C    0.271643
     2  O   -0.215721
     3  Cl  -0.147650
     4  H    0.091728
 Sum of Mulliken charges =   0.00000

 Dipole moment (field-independent basis, Debye):
    X=             -1.9236    Y=              0.9130    Z=              0.0000  Tot=              2.1293
 Quadrupole moment (field-independent basis, Debye-Ang):
   XX=            -25.5106   YY=            -23.4196   ZZ=            -23.2353
   XY=             -3.0380   XZ=              0.0000   YZ=              0.0000

  Exact polarizability:  21.341   5.707  29.378   0.000   0.000  11.444
 Approx polarizability:  21.339   5.791  26.343   0.000   0.000  12.129

                      1                      2                      3
                     A'                     A'                     A"
 Frequencies --    500.7422               803.0286              1060.9869
 Red. masses --     16.6250                 6.3593                 1.5957
 Frc consts  --      2.4561                 2.4161                 1.0584
 IR Inten    --      8.6923               246.0842                 0.0153
 Raman Activ --      8.0746                10.5646                 1.3414

                      4                      5                      6
                     A'                     A'                     A'
 Frequencies --   1443.1071              2035.8112              3269.1493
 Red. masses --      1.1138                 9.6739                 1.1026
 Frc consts  --      1.3666                23.6225                 6.9428
 IR Inten    --     59.3125               480.7928                26.3683
 Raman Activ --      2.9646                11.4819               120.6231

 - Thermochemistry -
 -------------------
 Temperature   298.150 Kelvin.  Pressure   1.00000 Atm.
 Atom     1 has atomic number  6 and mass  12.00000

 Molecular mass:    63.97159 amu.
 Principal axes and moments of inertia in atomic units:
                           1         2         3
     Eigenvalues --    22.69609 289.99995 312.69604
           X            0.53788   0.84302   0.00000
           Y            0.84302  -0.53788   0.00000
           Z            0.00000   0.00000   1.00000
 This molecule is an asymmetric top.
 Rotational symmetry number  1.
 Rotational temperatures (Kelvin)      3.81624     0.29867     0.27699
 Rotational constants (GHZ):          79.51770     6.22325     5.77155
 Zero-point vibrational energy      54506.8 (Joules/Mol)
                                   13.02744 (Kcal/Mol)
 Warning -- explicit consideration of   1 degrees of freedom as
           vibrations may cause significant error
 Vibrational temperatures:    720.46  1155.38  1526.52  2076.31  2929.07
          (Kelvin)           4703.57

 Zero-point correction=                           0.020761 (Hartree/Particle)
 Thermal correction to Energy=                    0.023930
 Thermal correction to Enthalpy=                  0.024874
 Thermal correction to Gibbs Free Energy=        -0.004386
 Sum of electronic and zero-point Energies=           -572.794024
 Sum of electronic and thermal Energies=              -572.790855
 Sum of electronic and thermal Enthalpies=            -572.789911
 Sum of electronic and thermal Free Energies=         -572.819171

                     E (Thermal)             CV                S
                      KCal/Mol        Cal/Mol-Kelvin    Cal/Mol-Kelvin
 Total                   15.016              8.273             61.584
 Electronic               0.000              0.000              0.000
 Translational            0.889              2.981             38.386
 Rotational               0.889              2.981             22.247
 Vibrational             13.239              2.311              0.950
 Vibration     1          0.856              1.248              0.656

 Optimization completed.
    -- Stationary point found.
 Normal termination of Gaussian 09 at Wed Oct  6 22:18:51 2021.
