 Gaussian 09, Revision D.01,
 Gaussian 09:  AS64L-G09RevD.01 24-Apr-2013

 --------------------------------------------------
 # opt=maxcyc=500 freq hf/cc-pvtz geom=connectivity
 --------------------------------------------------

 -----
 Title
 -----
 Symbolic Z-matrix:
 Charge =  0 Multiplicity = 1

 SCF Done:  E(RHF) =  -572.866177493     A.U. after   13 cycles
 Optimization completed.
    -- Stationary point found.
 Normal termination of Gaussian 09 at Wed Oct  6 22:46:02 2021.

 ----------------------------------------------------------------
 #N Geom=AllCheck Guess=TCheck SCRF=Check GenChk RHF/CC-pVTZ Freq
 ----------------------------------------------------------------

 Structure from the checkpoint file:  "/blue/chm6586/le.chen/hw3/clcho/Gau-2350.chk"
 -----
 Title
 -----
 Charge =  0 Multiplicity = 1

                         Standard orientation:
 ---------------------------------------------------------------------
 Center     Atomic      Atomic             Coordinates (Angstroms)
 Number     Number       Type             X           Y           Z
 ---------------------------------------------------------------------
      1          6           0        0.000000    0.792555    0.000000
      2          8           0        1.101640    1.148324    0.000000
      3         17           0       -0.466738   -0.903995    0.000000
      4          1           0       -0.878568    1.425990    0.000000
 ---------------------------------------------------------------------

 SCF Done:  E(RHF) =  -572.866177493     A.U. after    1 cycles

 The electronic state is 1-A'.
 Alpha  occ. eigenvalues -- -104.85844 -20.60670 -11.40887 -10.58435  -8.05097
 Alpha  occ. eigenvalues --   -8.04924  -8.04909  -1.47617  -1.14625  -0.85806
 Alpha  occ. eigenvalues --   -0.72236  -0.67721  -0.61371  -0.48156  -0.47785
 Alpha  occ. eigenvalues --   -0.46982
 Alpha virt. eigenvalues --    0.11537   0.13738   0.21609   0.28093   0.35570
 Alpha virt. eigenvalues --    0.41760   0.46280   0.47731   0.49931   0.50469
 Alpha virt. eigenvalues --    0.57869   0.60173   0.60931   0.64661   0.65787

 Mulliken charges:
               1
     1  C    0.288178
     2  O   -0.253656
     3  Cl  -0.156617
     4  H    0.122095
 Sum of Mulliken charges =   0.00000

 Dipole moment (field-independent basis, Debye):
    X=             -1.9831    Y=              0.7374    Z=              0.0000  Tot=              2.1158
 Quadrupole moment (field-independent basis, Debye-Ang):
   XX=            -25.6936   YY=            -23.3333   ZZ=            -23.2812
   XY=             -3.0885   XZ=              0.0000   YZ=              0.0000

  Exact polarizability:  25.114   5.579  32.201   0.000   0.000  16.154
 Approx polarizability:  24.999   4.932  29.244   0.000   0.000  17.523

                      1                      2                      3
                     A'                     A'                     A"
 Frequencies --    504.5759               806.7348              1071.9095
 Red. masses --     16.5871                 6.4145                 1.5930
 Frc consts  --      2.4881                 2.4597                 1.0784
 IR Inten    --      7.3785               243.2763                 0.2017
 Raman Activ --      7.6801                 9.5696                 1.0165

                      4                      5                      6
                     A'                     A'                     A'
 Frequencies --   1459.8612              2018.6286              3239.8363
 Red. masses --      1.1126                 9.7770                 1.1008
 Frc consts  --      1.3970                23.4731                 6.8077
 IR Inten    --     52.1986               462.1611                23.2722
 Raman Activ --      1.5750                11.9400               110.0037

 - Thermochemistry -
 -------------------
 Temperature   298.150 Kelvin.  Pressure   1.00000 Atm.
 Atom     1 has atomic number  6 and mass  12.00000

 Molecular mass:    63.97159 amu.
 Principal axes and moments of inertia in atomic units:
                           1         2         3
     Eigenvalues --    22.42926 288.17375 310.60301
           X            0.53781   0.84307   0.00000
           Y            0.84307  -0.53781   0.00000
           Z            0.00000   0.00000   1.00000
 This molecule is an asymmetric top.
 Rotational symmetry number  1.
 Rotational temperatures (Kelvin)      3.86164     0.30056     0.27886
 Rotational constants (GHZ):          80.46369     6.26268     5.81044
 Zero-point vibrational energy      54439.3 (Joules/Mol)
                                   13.01131 (Kcal/Mol)
 Warning -- explicit consideration of   1 degrees of freedom as
           vibrations may cause significant error
 Vibrational temperatures:    725.97  1160.71  1542.24  2100.41  2904.35
          (Kelvin)           4661.40

 Zero-point correction=                           0.020735 (Hartree/Particle)
 Thermal correction to Energy=                    0.023899
 Thermal correction to Enthalpy=                  0.024843
 Thermal correction to Gibbs Free Energy=        -0.004398
 Sum of electronic and zero-point Energies=           -572.845443
 Sum of electronic and thermal Energies=              -572.842279
 Sum of electronic and thermal Enthalpies=            -572.841334
 Sum of electronic and thermal Free Energies=         -572.870575

                     E (Thermal)             CV                S
                      KCal/Mol        Cal/Mol-Kelvin    Cal/Mol-Kelvin
 Total                   14.997              8.243             61.543
 Electronic               0.000              0.000              0.000
 Translational            0.889              2.981             38.386
 Rotational               0.889              2.981             22.223
 Vibrational             13.219              2.282              0.934
 Vibration     1          0.860              1.240              0.647

 Optimization completed.
    -- Stationary point found.
 Normal termination of Gaussian 09 at Wed Oct  6 22:46:33 2021.
