 Gaussian 09, Revision D.01,
 Gaussian 09:  AS64L-G09RevD.01 24-Apr-2013

 --------
 #am1 opt
 --------

 -----
 Title
 -----
 Symbolic Z-matrix:
 Charge =  0 Multiplicity = 1

 SCF Done:  E(RAM1) =  0.132148323065E-01 A.U. after   12 cycles
 SCF Done:  E(RAM1) =  0.113574316618E-01 A.U. after   10 cycles
 SCF Done:  E(RAM1) =  0.112652405403E-01 A.U. after    9 cycles
 SCF Done:  E(RAM1) =  0.112517863060E-01 A.U. after    9 cycles
 SCF Done:  E(RAM1) =  0.112488304214E-01 A.U. after    9 cycles
 SCF Done:  E(RAM1) =  0.112382343744E-01 A.U. after   10 cycles
 SCF Done:  E(RAM1) =  0.111893822284E-01 A.U. after   11 cycles
 SCF Done:  E(RAM1) =  0.111237518388E-01 A.U. after   10 cycles
 SCF Done:  E(RAM1) =  0.113490936971E-01 A.U. after   12 cycles
 SCF Done:  E(RAM1) =  0.106559065850E-01 A.U. after    9 cycles
 SCF Done:  E(RAM1) =  0.104415501323E-01 A.U. after   12 cycles
 SCF Done:  E(RAM1) =  0.444371572926E-01 A.U. after   10 cycles
 SCF Done:  E(RAM1) =  0.104288157004E-01 A.U. after    8 cycles
 SCF Done:  E(RAM1) =  0.103995972140E-01 A.U. after   10 cycles
 SCF Done:  E(RAM1) =  0.103846876952E-01 A.U. after   10 cycles
 SCF Done:  E(RAM1) =  0.103833328137E-01 A.U. after    9 cycles
 SCF Done:  E(RAM1) =  0.103827184357E-01 A.U. after   10 cycles
 SCF Done:  E(RAM1) =  0.103825089897E-01 A.U. after    9 cycles
 Optimization completed.
    -- Stationary point found.

                         Standard orientation:
 ---------------------------------------------------------------------
 Center     Atomic      Atomic             Coordinates (Angstroms)
 Number     Number       Type             X           Y           Z
 ---------------------------------------------------------------------
      1          6           0        1.213789   -0.170885   -0.000018
      2          6           0       -0.120957    0.460190    0.000045
      3          1           0        1.789496    0.147740    0.905127
      4          1           0        1.788633    0.146392   -0.906283
      5          1           0        1.146856   -1.286544    0.000896
      6          6           0       -1.268564   -0.214131    0.000033
      7          1           0       -0.112779    1.563589    0.000164
      8          1           0       -1.313769   -1.311070    0.000112
      9          1           0       -2.244045    0.288850   -0.000372
 ---------------------------------------------------------------------

 The electronic state is 1-A.
 Alpha  occ. eigenvalues --   -1.28843  -1.02273  -0.75400  -0.58546  -0.52822
 Alpha  occ. eigenvalues --   -0.51596  -0.46094  -0.43586  -0.36720
 Alpha virt. eigenvalues --    0.05016   0.14547   0.15952   0.16495   0.16843
 Alpha virt. eigenvalues --    0.18015   0.18795   0.20814   0.21758

 Mulliken charges:
               1
     1  C   -0.189380
     2  C   -0.161883
     3  H    0.081547
     4  H    0.081564
     5  H    0.077222
     6  C   -0.225904
     7  H    0.116549
     8  H    0.110023
     9  H    0.110263
 Sum of Mulliken charges =   0.00000

 Dipole moment (field-independent basis, Debye):
    X=              0.2283    Y=              0.0249    Z=             -0.0003  Tot=              0.2296
 N-N= 5.092573671450D+01 E-N=-7.901753390106D+01  KE=-1.089559072680D+01
 B after Tr=    -0.067411   -0.026052    0.001986
         Rot=    0.999115   -0.001434    0.000120   -0.042033 Ang=  -4.82 deg.
 Final structure in terms of initial Z-matrix:
 C
 C,1,B1
 H,1,B2,2,A2
 H,1,B3,2,A3,3,D3,0
 H,1,B4,2,A4,3,D4,0
 C,2,B5,1,A5,3,D5,0

 Normal termination of Gaussian 09 at Thu Sep 23 21:44:52 2021.
