 Gaussian 09, Revision D.01,
 Gaussian 09:  AS64L-G09RevD.01 24-Apr-2013

 ----------
 #n AM1 Opt
 ----------

 -----
 Title
 -----
 Symbolic Z-matrix:
 Charge =  0 Multiplicity = 1

 SCF Done:  E(RAM1) =  0.345916120312E-01 A.U. after   12 cycles
 SCF Done:  E(RAM1) =  0.322888344228E-01 A.U. after   11 cycles
 SCF Done:  E(RAM1) =  0.321503125565E-01 A.U. after   10 cycles
 SCF Done:  E(RAM1) =  0.321180970673E-01 A.U. after   10 cycles
 SCF Done:  E(RAM1) =  0.320922132416E-01 A.U. after   10 cycles
 SCF Done:  E(RAM1) =  0.320046867381E-01 A.U. after   12 cycles
 SCF Done:  E(RAM1) =  0.319094158632E-01 A.U. after   11 cycles
 SCF Done:  E(RAM1) =  0.318163249548E-01 A.U. after   11 cycles
 SCF Done:  E(RAM1) =  0.314629345386E-01 A.U. after   12 cycles
 SCF Done:  E(RAM1) =  0.314300765380E-01 A.U. after   11 cycles
 SCF Done:  E(RAM1) =  0.314175500887E-01 A.U. after   11 cycles
 SCF Done:  E(RAM1) =  0.314150037641E-01 A.U. after   10 cycles
 SCF Done:  E(RAM1) =  0.314127576479E-01 A.U. after   10 cycles
 SCF Done:  E(RAM1) =  0.314110727585E-01 A.U. after   10 cycles
 SCF Done:  E(RAM1) =  0.314103825406E-01 A.U. after   10 cycles
 Optimization completed.
    -- Stationary point found.

                         Standard orientation:
 ---------------------------------------------------------------------
 Center     Atomic      Atomic             Coordinates (Angstroms)
 Number     Number       Type             X           Y           Z
 ---------------------------------------------------------------------
      1          6           0        2.434663   -0.224432   -0.000163
      2          6           0        1.110426    0.424323    0.000042
      3          1           0        3.014609    0.087262    0.905071
      4          1           0        3.013560    0.086570   -0.906391
      5          1           0        2.355000   -1.339313    0.000379
      6          6           0       -0.048948   -0.248300    0.000303
      7          1           0        1.126415    1.527302    0.000156
      8          6           0       -1.343194    0.404423    0.000095
      9          1           0       -0.060979   -1.352179    0.000833
     10          6           0       -2.501600   -0.259379   -0.000234
     11          1           0       -1.328118    1.508698    0.000228
     12          1           0       -2.558954   -1.355601   -0.000128
     13          1           0       -3.469616    0.257453   -0.000410
 ---------------------------------------------------------------------

 The electronic state is 1-A.
 Alpha  occ. eigenvalues --   -1.34235  -1.20969  -1.01390  -0.79734  -0.74064
 Alpha  occ. eigenvalues --   -0.59047  -0.56419  -0.51978  -0.50305  -0.48125
 Alpha  occ. eigenvalues --   -0.45025  -0.43107  -0.42943  -0.33197
 Alpha virt. eigenvalues --    0.01577   0.08465   0.13760   0.15253   0.15451
 Alpha virt. eigenvalues --    0.16361   0.16646   0.17440   0.17650   0.18303
 Alpha virt. eigenvalues --    0.20139   0.20471   0.21237   0.22388

 Mulliken charges:
               1
     1  C   -0.188682
     2  C   -0.151036
     3  H    0.083491
     4  H    0.083491
     5  H    0.078450
     6  C   -0.145859
     7  H    0.119390
     8  C   -0.131803
     9  H    0.122424
    10  C   -0.213051
    11  H    0.119578
    12  H    0.111333
    13  H    0.112274
 Sum of Mulliken charges =   0.00000

 Dipole moment (field-independent basis, Debye):
    X=              0.3242    Y=              0.0296    Z=              0.0002  Tot=              0.3255
 N-N= 9.948937974943D+01 E-N=-1.627792135118D+02  KE=-1.732598486716D+01
 B after Tr=    -0.040815   -0.010860    0.000795
         Rot=    0.999658   -0.001976    0.005993   -0.025375 Ang=  -3.00 deg.
 Final structure in terms of initial Z-matrix:
 C
 C,1,B1
 H,1,B2,2,A2
 H,1,B3,2,A3,3,D3,0
 H,1,B4,2,A4,3,D4,0
 C,2,B5,1,A5,3,D5,0

 Normal termination of Gaussian 09 at Thu Sep 23 21:46:20 2021.
