 Gaussian 09, Revision D.01,
 Gaussian 09:  AS64L-G09RevD.01 24-Apr-2013

 ----------
 #n AM1 Opt
 ----------

 -----
 Title
 -----
 Symbolic Z-matrix:
 Charge =  0 Multiplicity = 1

 SCF Done:  E(RAM1) =  0.552977994578E-01 A.U. after   12 cycles
 SCF Done:  E(RAM1) =  0.525565794720E-01 A.U. after   11 cycles
 SCF Done:  E(RAM1) =  0.523624586455E-01 A.U. after   10 cycles
 SCF Done:  E(RAM1) =  0.523008304080E-01 A.U. after   10 cycles
 SCF Done:  E(RAM1) =  0.522431653248E-01 A.U. after   11 cycles
 SCF Done:  E(RAM1) =  0.521356284700E-01 A.U. after   11 cycles
 SCF Done:  E(RAM1) =  0.520279804915E-01 A.U. after   11 cycles
 SCF Done:  E(RAM1) =  0.519934099005E-01 A.U. after   11 cycles
 SCF Done:  E(RAM1) =  0.519890898743E-01 A.U. after   10 cycles
 SCF Done:  E(RAM1) =  0.519858760748E-01 A.U. after   10 cycles
 SCF Done:  E(RAM1) =  0.519816641178E-01 A.U. after   10 cycles
 SCF Done:  E(RAM1) =  0.519813259249E-01 A.U. after    9 cycles
 SCF Done:  E(RAM1) =  0.519812809216E-01 A.U. after    9 cycles
 Optimization completed.
    -- Stationary point found.

                         Standard orientation:
 ---------------------------------------------------------------------
 Center     Atomic      Atomic             Coordinates (Angstroms)
 Number     Number       Type             X           Y           Z
 ---------------------------------------------------------------------
      1          6           0        3.658254   -0.250898   -0.000039
      2          6           0        2.337146    0.403719   -0.000097
      3          1           0        4.239050    0.058053    0.905749
      4          1           0        4.239139    0.058090   -0.905749
      5          1           0        3.573775   -1.365373   -0.000030
      6          6           0        1.174231   -0.264602   -0.000079
      7          1           0        2.357564    1.506626   -0.000186
      8          6           0       -0.113912    0.393645   -0.000171
      9          1           0        1.159393   -1.368575   -0.000025
     10          6           0       -1.279196   -0.278151    0.000560
     11          1           0       -0.100930    1.497626   -0.000906
     12          6           0       -2.568629    0.380769    0.000404
     13          1           0       -1.293683   -1.381877    0.001290
     14          6           0       -3.730633   -0.277801   -0.000490
     15          1           0       -2.548774    1.485045    0.001076
     16          1           0       -3.793127   -1.373772   -0.001146
     17          1           0       -4.695979    0.244074   -0.000605
 ---------------------------------------------------------------------

 The electronic state is 1-A.
 Alpha  occ. eigenvalues --   -1.36309  -1.28571  -1.16207  -1.00962  -0.83650
 Alpha  occ. eigenvalues --   -0.74832  -0.73521  -0.59922  -0.58390  -0.52456
 Alpha  occ. eigenvalues --   -0.52095  -0.51896  -0.47228  -0.46498  -0.45479
 Alpha  occ. eigenvalues --   -0.44433  -0.43073  -0.39008  -0.31459
 Alpha virt. eigenvalues --   -0.00290   0.05562   0.09544   0.13316   0.14641
 Alpha virt. eigenvalues --    0.14945   0.15681   0.16309   0.16414   0.16552
 Alpha virt. eigenvalues --    0.17454   0.17949   0.18097   0.19154   0.20262

 Mulliken charges:
               1
     1  C   -0.189195
     2  C   -0.148753
     3  H    0.084156
     4  H    0.084158
     5  H    0.078884
     6  C   -0.145174
     7  H    0.119863
     8  C   -0.121866
     9  H    0.123153
    10  C   -0.132996
    11  H    0.121994
    12  C   -0.134233
    13  H    0.123355
    14  C   -0.209290
    15  H    0.120933
    16  H    0.111895
    17  H    0.113115
 Sum of Mulliken charges =   0.00000

 Dipole moment (field-independent basis, Debye):
    X=              0.3826    Y=              0.0340    Z=             -0.0001  Tot=              0.3841
 N-N= 1.556854314715D+02 E-N=-2.616368585995D+02  KE=-2.391028759930D+01
 B after Tr=    -0.020854    0.010860    0.005415
         Rot=    0.999908   -0.000191    0.004843   -0.012661 Ang=  -1.55 deg.
 Final structure in terms of initial Z-matrix:
 C
 C,1,B1
 H,1,B2,2,A2
 H,1,B3,2,A3,3,D3,0
 H,1,B4,2,A4,3,D4,0
 C,2,B5,1,A5,3,D5,0

 Normal termination of Gaussian 09 at Thu Sep 23 21:49:21 2021.
