 Gaussian 09, Revision D.01,
 Gaussian 09:  AS64L-G09RevD.01 24-Apr-2013

 ----------------------------
 #n HF/6-31g Opt=(MaxCyc=500)
 ----------------------------

 -----
 Title
 -----
 Symbolic Z-matrix:
 Charge =  0 Multiplicity = 1

 SCF Done:  E(RHF) =  -311.466273895     A.U. after   12 cycles
 SCF Done:  E(RHF) =  -311.477971642     A.U. after   12 cycles
 SCF Done:  E(RHF) =  -311.478257750     A.U. after   11 cycles
 SCF Done:  E(RHF) =  -311.478268124     A.U. after   10 cycles
 Optimization completed.
    -- Stationary point found.

                         Standard orientation:
 ---------------------------------------------------------------------
 Center     Atomic      Atomic             Coordinates (Angstroms)
 Number     Number       Type             X           Y           Z
 ---------------------------------------------------------------------
      1          6           0        0.000000    0.000000    0.146943
      2          8           0        0.000000    0.000000    1.319754
      3          9           0        0.000000    1.081806   -0.635538
      4          9           0        0.000000   -1.081806   -0.635538
 ---------------------------------------------------------------------

 The electronic state is 1-A1.
 Alpha  occ. eigenvalues --  -26.40239 -26.40235 -20.66589 -11.57774  -1.77017
 Alpha  occ. eigenvalues --   -1.69152  -1.52824  -0.95024  -0.86121  -0.82193
 Alpha  occ. eigenvalues --   -0.80675  -0.72819  -0.70787  -0.70334  -0.58966
 Alpha  occ. eigenvalues --   -0.57172
 Alpha virt. eigenvalues --    0.12133   0.24147   0.41293   0.49338   0.64569
 Alpha virt. eigenvalues --    0.68204   0.68919   0.90895   1.16487   1.21585
 Alpha virt. eigenvalues --    1.24951   1.45336   1.46115   1.55408   1.60928

 Mulliken charges:
               1
     1  C    1.084902
     2  O   -0.394284
     3  F   -0.345309
     4  F   -0.345309
 Sum of Mulliken charges =   0.00000

 Dipole moment (field-independent basis, Debye):
    X=              0.0000    Y=              0.0000    Z=             -0.8468  Tot=              0.8468
 Quadrupole moment (field-independent basis, Debye-Ang):
   XX=            -18.5537   YY=            -22.6100   ZZ=            -24.6722
   XY=              0.0000   XZ=              0.0000   YZ=              0.0000

 Normal termination of Gaussian 09 at Sun Sep 19 23:08:38 2021.
