 Gaussian 09, Revision D.01,
 Gaussian 09:  AS64L-G09RevD.01 24-Apr-2013

 ------------------------------
 #n HF/cc-pvdz Opt=(MaxCyc=500)
 ------------------------------

 -----
 Title
 -----
 Symbolic Z-matrix:
 Charge =  0 Multiplicity = 1

 SCF Done:  E(RHF) =  -311.611881355     A.U. after   12 cycles
 SCF Done:  E(RHF) =  -311.635580240     A.U. after   11 cycles
 SCF Done:  E(RHF) =  -311.635650388     A.U. after    9 cycles
 SCF Done:  E(RHF) =  -311.635651719     A.U. after    9 cycles
 SCF Done:  E(RHF) =  -311.635651843     A.U. after    7 cycles
 Optimization completed.
    -- Stationary point found.

                         Standard orientation:
 ---------------------------------------------------------------------
 Center     Atomic      Atomic             Coordinates (Angstroms)
 Number     Number       Type             X           Y           Z
 ---------------------------------------------------------------------
      1          6           0        0.000000    0.000000    0.136582
      2          8           0        0.000000    0.000000    1.290164
      3          9           0        0.000000    1.044954   -0.618934
      4          9           0        0.000000   -1.044954   -0.618934
 ---------------------------------------------------------------------

 The electronic state is 1-A1.
 Alpha  occ. eigenvalues --  -26.38933 -26.38929 -20.61240 -11.52889  -1.77480
 Alpha  occ. eigenvalues --   -1.69163  -1.48487  -0.95848  -0.87054  -0.82032
 Alpha  occ. eigenvalues --   -0.80373  -0.72148  -0.69875  -0.69763  -0.57029
 Alpha  occ. eigenvalues --   -0.54855
 Alpha virt. eigenvalues --    0.18477   0.29584   0.46209   0.48294   0.58883
 Alpha virt. eigenvalues --    0.64722   0.67394   0.91339   1.07622   1.23124
 Alpha virt. eigenvalues --    1.27201   1.27677   1.30948   1.31381   1.44556

 Mulliken charges:
               1
     1  C    0.661517
     2  O   -0.272259
     3  F   -0.194629
     4  F   -0.194629
 Sum of Mulliken charges =   0.00000

 Dipole moment (field-independent basis, Debye):
    X=              0.0000    Y=              0.0000    Z=             -1.1750  Tot=              1.1750
 Quadrupole moment (field-independent basis, Debye-Ang):
   XX=            -18.2475   YY=            -21.0845   ZZ=            -23.1651
   XY=              0.0000   XZ=              0.0000   YZ=              0.0000

 Normal termination of Gaussian 09 at Sun Sep 19 23:01:50 2021.
