 Gaussian 09, Revision D.01,
 Gaussian 09:  AS64L-G09RevD.01 24-Apr-2013

 ------------------------------
 #n HF/cc-pvtz Opt=(MaxCyc=500)
 ------------------------------

 -----
 Title
 -----
 Symbolic Z-matrix:
 Charge =  0 Multiplicity = 1

 SCF Done:  E(RHF) =  -311.714395784     A.U. after   12 cycles
 SCF Done:  E(RHF) =  -311.740066406     A.U. after   11 cycles
 SCF Done:  E(RHF) =  -311.740187330     A.U. after    9 cycles
 SCF Done:  E(RHF) =  -311.740188990     A.U. after    8 cycles
 Optimization completed.
    -- Stationary point found.

                         Standard orientation:
 ---------------------------------------------------------------------
 Center     Atomic      Atomic             Coordinates (Angstroms)
 Number     Number       Type             X           Y           Z
 ---------------------------------------------------------------------
      1          6           0        0.000000    0.000000    0.134297
      2          8           0        0.000000    0.000000    1.285544
      3          9           0        0.000000    1.040379   -0.616119
      4          9           0        0.000000   -1.040379   -0.616119
 ---------------------------------------------------------------------

 The electronic state is 1-A1.
 Alpha  occ. eigenvalues --  -26.38874 -26.38871 -20.60568 -11.51803  -1.77795
 Alpha  occ. eigenvalues --   -1.69401  -1.48371  -0.96279  -0.87614  -0.82758
 Alpha  occ. eigenvalues --   -0.80835  -0.72810  -0.70567  -0.70221  -0.57422
 Alpha  occ. eigenvalues --   -0.55292
 Alpha virt. eigenvalues --    0.18211   0.22437   0.34971   0.35584   0.38067
 Alpha virt. eigenvalues --    0.50637   0.54123   0.68873   0.79151   0.80594
 Alpha virt. eigenvalues --    0.80680   0.83617   0.87906   0.89486   0.95781

 Mulliken charges:
               1
     1  C    0.600316
     2  O   -0.291714
     3  F   -0.154301
     4  F   -0.154301
 Sum of Mulliken charges =   0.00000

 Dipole moment (field-independent basis, Debye):
    X=              0.0000    Y=              0.0000    Z=             -1.3035  Tot=              1.3035
 Quadrupole moment (field-independent basis, Debye-Ang):
   XX=            -18.3952   YY=            -20.9862   ZZ=            -23.2234
   XY=              0.0000   XZ=              0.0000   YZ=              0.0000

 Normal termination of Gaussian 09 at Sun Sep 19 22:58:25 2021.
