 Gaussian 09, Revision D.01,
 Gaussian 09:  AS64L-G09RevD.01 24-Apr-2013

 --------------------------------------------------
 # opt=maxcyc=500 freq hf/cc-pvtz geom=connectivity
 --------------------------------------------------

 -----
 Title
 -----
 Symbolic Z-matrix:
 Charge =  0 Multiplicity = 1

 SCF Done:  E(RHF) =  -113.913225301     A.U. after   11 cycles
 Optimization completed.
    -- Stationary point found.
 Normal termination of Gaussian 09 at Fri Oct  1 11:17:59 2021.

 ----------------------------------------------------------------
 #N Geom=AllCheck Guess=TCheck SCRF=Check GenChk RHF/CC-pVTZ Freq
 ----------------------------------------------------------------

 Structure from the checkpoint file:  "/blue/chm6586/le.chen/hw2/ch2o/hw3/Gau-14140.chk"
 -----
 Title
 -----
 Charge =  0 Multiplicity = 1

                         Standard orientation:
 ---------------------------------------------------------------------
 Center     Atomic      Atomic             Coordinates (Angstroms)
 Number     Number       Type             X           Y           Z
 ---------------------------------------------------------------------
      1          6           0        0.000000    0.000000   -0.516497
      2          8           0        0.000000    0.000000    0.661423
      3          1           0        0.000000    0.926511   -1.096203
      4          1           0        0.000000   -0.926511   -1.096203
 ---------------------------------------------------------------------

 SCF Done:  E(RHF) =  -113.913225301     A.U. after    1 cycles

 The electronic state is 1-A1.
 Alpha  occ. eigenvalues --  -20.57226 -11.33155  -1.42223  -0.86745  -0.70072
 Alpha  occ. eigenvalues --   -0.65807  -0.54657  -0.43811
 Alpha virt. eigenvalues --    0.12708   0.14958   0.20868   0.26985   0.44055
 Alpha virt. eigenvalues --    0.44372   0.45722   0.59506   0.63241   0.68329
 Alpha virt. eigenvalues --    0.70838   0.76043   0.86377   0.89295   0.95465

 Mulliken charges:
               1
     1  C    0.208976
     2  O   -0.310814
     3  H    0.050919
     4  H    0.050919
 Sum of Mulliken charges =   0.00000

 Dipole moment (field-independent basis, Debye):
    X=              0.0000    Y=              0.0000    Z=             -2.6537  Tot=              2.6537
 Quadrupole moment (field-independent basis, Debye-Ang):
   XX=            -11.5472   YY=            -11.4086   ZZ=            -12.0058
   XY=              0.0000   XZ=              0.0000   YZ=              0.0000

  Exact polarizability:   9.527   0.000  14.277   0.000   0.000  19.094
 Approx polarizability:   9.354   0.000  11.545   0.000   0.000  16.962

                      1                      2                      3
                     B1                     B2                     A1
 Frequencies --   1337.1408              1370.4802              1652.1089
 Red. masses --      1.3698                 1.3485                 1.0953
 Frc consts  --      1.4430                 1.4923                 1.7614
 IR Inten    --      2.1564                22.1397                16.7080
 Raman Activ --      0.0953                 1.8991                 9.4424

                      4                      5                      6
                     A1                     A1                     B2
 Frequencies --   1999.3435              3084.3470              3152.7878
 Red. masses --      7.7028                 1.0480                 1.1195
 Frc consts  --     18.1415                 5.8740                 6.5565
 IR Inten    --    152.2966                62.5632               115.3205
 Raman Activ --      9.9846               150.1423                66.8755

 - Thermochemistry -
 -------------------
 Temperature   298.150 Kelvin.  Pressure   1.00000 Atm.
 Atom     1 has atomic number  6 and mass  12.00000

 Molecular mass:    30.01056 amu.
 Principal axes and moments of inertia in atomic units:
                           1         2         3
     Eigenvalues --     6.17894  44.50846  50.68741
           X            0.00000   0.00000   1.00000
           Y            0.00000   1.00000   0.00000
           Z            1.00000   0.00000   0.00000
 This molecule is an asymmetric top.
 Rotational symmetry number  2.
 Rotational temperatures (Kelvin)     14.01758     1.94601     1.70878
 Rotational constants (GHZ):         292.07938    40.54827    35.60532
 Zero-point vibrational energy      75342.1 (Joules/Mol)
                                   18.00718 (Kcal/Mol)
 Vibrational temperatures:   1923.85  1971.81  2377.01  2876.61  4437.68
          (Kelvin)           4536.15

 Zero-point correction=                           0.028696 (Hartree/Particle)
 Thermal correction to Energy=                    0.031550
 Thermal correction to Enthalpy=                  0.032494
 Thermal correction to Gibbs Free Energy=         0.007745
 Sum of electronic and zero-point Energies=           -113.884529
 Sum of electronic and thermal Energies=              -113.881675
 Sum of electronic and thermal Enthalpies=            -113.880731
 Sum of electronic and thermal Free Energies=         -113.905480

                     E (Thermal)             CV                S
                      KCal/Mol        Cal/Mol-Kelvin    Cal/Mol-Kelvin
 Total                   19.798              6.265             52.088
 Electronic               0.000              0.000              0.000
 Translational            0.889              2.981             36.130
 Rotational               0.889              2.981             15.907
 Vibrational             18.020              0.304              0.051

 Optimization completed.
    -- Stationary point found.
 Normal termination of Gaussian 09 at Fri Oct  1 11:18:11 2021.
