 Gaussian 09, Revision D.01,
 Gaussian 09:  AS64L-G09RevD.01 24-Apr-2013

 --------------------------------------------------
 # opt=maxcyc=500 freq hf/cc-pvdz geom=connectivity
 --------------------------------------------------

 -----
 Title
 -----
 Symbolic Z-matrix:
 Charge =  0 Multiplicity = 1

 SCF Done:  E(RHF) =  -113.877222713     A.U. after   11 cycles
 Optimization completed.
    -- Stationary point found.
 Normal termination of Gaussian 09 at Fri Oct  1 11:04:34 2021.

 ----------------------------------------------------------------
 #N Geom=AllCheck Guess=TCheck SCRF=Check GenChk RHF/CC-pVDZ Freq
 ----------------------------------------------------------------

 Structure from the checkpoint file:  "/blue/chm6586/le.chen/hw2/ch2o/hw3/Gau-64268.chk"
 -----
 Title
 -----
 Charge =  0 Multiplicity = 1

                         Standard orientation:
 ---------------------------------------------------------------------
 Center     Atomic      Atomic             Coordinates (Angstroms)
 Number     Number       Type             X           Y           Z
 ---------------------------------------------------------------------
      1          6           0        0.000000    0.000000   -0.517662
      2          8           0        0.000000    0.000000    0.664385
      3          1           0        0.000000    0.932451   -1.104553
      4          1           0        0.000000   -0.932451   -1.104553
 ---------------------------------------------------------------------

 SCF Done:  E(RHF) =  -113.877222713     A.U. after    1 cycles

 The electronic state is 1-A1.
 Alpha  occ. eigenvalues --  -20.57452 -11.34120  -1.41926  -0.86256  -0.69328
 Alpha  occ. eigenvalues --   -0.65290  -0.53938  -0.43222
 Alpha virt. eigenvalues --    0.14309   0.19097   0.26052   0.36228   0.66781
 Alpha virt. eigenvalues --    0.67287   0.74013   0.81915   0.91755   0.98246
 Alpha virt. eigenvalues --    1.10286   1.15790   1.28995   1.32359   1.42190

 Mulliken charges:
               1
     1  C    0.237668
     2  O   -0.280916
     3  H    0.021624
     4  H    0.021624
 Sum of Mulliken charges =   0.00000

 Dipole moment (field-independent basis, Debye):
    X=              0.0000    Y=              0.0000    Z=             -2.5683  Tot=              2.5683
 Quadrupole moment (field-independent basis, Debye-Ang):
   XX=            -11.4401   YY=            -11.4152   ZZ=            -11.8743
   XY=              0.0000   XZ=              0.0000   YZ=              0.0000

  Exact polarizability:   7.164   0.000  12.950   0.000   0.000  17.669
 Approx polarizability:   6.971   0.000   9.993   0.000   0.000  16.240

                      1                      2                      3
                     B1                     B2                     A1
 Frequencies --   1325.3098              1359.7101              1637.5077
 Red. masses --      1.3722                 1.3499                 1.0901
 Frc consts  --      1.4201                 1.4705                 1.7222
 IR Inten    --      1.0124                26.1763                11.0520
 Raman Activ --      0.2847                 3.0715                11.9186

                      4                      5                      6
                     A1                     A1                     B2
 Frequencies --   2013.5712              3109.1421              3183.5069
 Red. masses --      7.8593                 1.0499                 1.1203
 Frc consts  --     18.7744                 5.9797                 6.6896
 IR Inten    --    158.9057                50.8197               134.5830
 Raman Activ --      8.3664               157.1045                73.1818

 - Thermochemistry -
 -------------------
 Temperature   298.150 Kelvin.  Pressure   1.00000 Atm.
 Atom     1 has atomic number  6 and mass  12.00000

 Molecular mass:    30.01056 amu.
 Principal axes and moments of inertia in atomic units:
                           1         2         3
     Eigenvalues --     6.25842  44.90808  51.16650
           X            0.00000   0.00000   1.00000
           Y            0.00000   1.00000   0.00000
           Z            1.00000   0.00000   0.00000
 This molecule is an asymmetric top.
 Rotational symmetry number  2.
 Rotational temperatures (Kelvin)     13.83956     1.92869     1.69278
 Rotational constants (GHZ):         288.36996    40.18745    35.27193
 Zero-point vibrational energy      75536.7 (Joules/Mol)
                                   18.05370 (Kcal/Mol)
 Vibrational temperatures:   1906.82  1956.32  2356.01  2897.08  4473.36
          (Kelvin)           4580.35

 Zero-point correction=                           0.028770 (Hartree/Particle)
 Thermal correction to Energy=                    0.031625
 Thermal correction to Enthalpy=                  0.032569
 Thermal correction to Gibbs Free Energy=         0.007805
 Sum of electronic and zero-point Energies=           -113.848452
 Sum of electronic and thermal Energies=              -113.845598
 Sum of electronic and thermal Enthalpies=            -113.844653
 Sum of electronic and thermal Free Energies=         -113.869418

                     E (Thermal)             CV                S
                      KCal/Mol        Cal/Mol-Kelvin    Cal/Mol-Kelvin
 Total                   19.845              6.277             52.122
 Electronic               0.000              0.000              0.000
 Translational            0.889              2.981             36.130
 Rotational               0.889              2.981             15.938
 Vibrational             18.068              0.315              0.054

 Optimization completed.
    -- Stationary point found.
 Normal termination of Gaussian 09 at Fri Oct  1 11:04:36 2021.
