 Gaussian 09, Revision D.01,
 Gaussian 09:  AS64L-G09RevD.01 24-Apr-2013

 ------------------------------
 #n HF/cc-pvtz Opt=(MaxCyc=500)
 ------------------------------

 -----
 Title
 -----
 Symbolic Z-matrix:
 Charge =  0 Multiplicity = 1

 SCF Done:  E(RHF) =  -113.909226057     A.U. after   11 cycles
 SCF Done:  E(RHF) =  -113.913167109     A.U. after   10 cycles
 SCF Done:  E(RHF) =  -113.913222718     A.U. after    9 cycles
 SCF Done:  E(RHF) =  -113.913225301     A.U. after    8 cycles
 Optimization completed.
    -- Stationary point found.

                         Standard orientation:
 ---------------------------------------------------------------------
 Center     Atomic      Atomic             Coordinates (Angstroms)
 Number     Number       Type             X           Y           Z
 ---------------------------------------------------------------------
      1          6           0        0.000000    0.000000   -0.516497
      2          8           0        0.000000    0.000000    0.661423
      3          1           0        0.000000    0.926511   -1.096203
      4          1           0        0.000000   -0.926511   -1.096203
 ---------------------------------------------------------------------

 The electronic state is 1-A1.
 Alpha  occ. eigenvalues --  -20.57226 -11.33155  -1.42223  -0.86745  -0.70072
 Alpha  occ. eigenvalues --   -0.65807  -0.54657  -0.43811
 Alpha virt. eigenvalues --    0.12708   0.14958   0.20868   0.26985   0.44055
 Alpha virt. eigenvalues --    0.44372   0.45722   0.59506   0.63241   0.68329
 Alpha virt. eigenvalues --    0.70838   0.76043   0.86377   0.89295   0.95465

 Mulliken charges:
               1
     1  C    0.208976
     2  O   -0.310814
     3  H    0.050919
     4  H    0.050919
 Sum of Mulliken charges =   0.00000

 Dipole moment (field-independent basis, Debye):
    X=              0.0000    Y=              0.0000    Z=             -2.6537  Tot=              2.6537
 Quadrupole moment (field-independent basis, Debye-Ang):
   XX=            -11.5472   YY=            -11.4086   ZZ=            -12.0058
   XY=              0.0000   XZ=              0.0000   YZ=              0.0000

 Normal termination of Gaussian 09 at Sun Sep 19 19:08:40 2021.
