 Gaussian 09, Revision D.01,
 Gaussian 09:  AS64L-G09RevD.01 24-Apr-2013

 -------------------------------
 #n HF/cc-pvdz Opt=(MaxCyc=2000)
 -------------------------------

 -----
 Title
 -----
 Symbolic Z-matrix:
 Charge =  0 Multiplicity = 1

 SCF Done:  E(RHF) =  -157.307927746     A.U. after   10 cycles
 SCF Done:  E(RHF) =  -157.308310479     A.U. after    9 cycles
 SCF Done:  E(RHF) =  -157.308381877     A.U. after    7 cycles
 SCF Done:  E(RHF) =  -157.308383907     A.U. after    7 cycles
 SCF Done:  E(RHF) =  -157.308384467     A.U. after    7 cycles
 SCF Done:  E(RHF) =  -157.308384512     A.U. after    6 cycles
 Optimization completed.
    -- Stationary point found.

                         Standard orientation:
 ---------------------------------------------------------------------
 Center     Atomic      Atomic             Coordinates (Angstroms)
 Number     Number       Type             X           Y           Z
 ---------------------------------------------------------------------
      1          6           0        1.588064   -0.552252    0.122976
      2          6           0        0.701620    0.615651   -0.306898
      3          1           0        1.690796   -0.588262    1.211558
      4          1           0        2.590271   -0.454917   -0.301128
      5          1           0        1.187070   -1.513742   -0.204878
      6          6           0       -0.701620    0.615651    0.306898
      7          1           0        0.616723    0.624132   -1.399475
      8          1           0        1.198165    1.552395   -0.035059
      9          6           0       -1.588064   -0.552252   -0.122976
     10          1           0       -1.198165    1.552395    0.035059
     11          1           0       -0.616723    0.624132    1.399475
     12          1           0       -1.690800   -0.588259   -1.211558
     13          1           0       -2.590270   -0.454919    0.301132
     14          1           0       -1.187067   -1.513742    0.204874
 ---------------------------------------------------------------------

 The electronic state is 1-A.
 Alpha  occ. eigenvalues --  -11.22017 -11.21959 -11.21586 -11.21586  -1.06921
 Alpha  occ. eigenvalues --   -0.97634  -0.87289  -0.77536  -0.62145  -0.61701
 Alpha  occ. eigenvalues --   -0.57256  -0.53232  -0.52962  -0.50235  -0.46048
 Alpha  occ. eigenvalues --   -0.45678  -0.45551
 Alpha virt. eigenvalues --    0.18051   0.21881   0.22104   0.22759   0.25980
 Alpha virt. eigenvalues --    0.27359   0.28315   0.28763   0.29015   0.31522
 Alpha virt. eigenvalues --    0.38427   0.39963   0.44337   0.57652   0.58744

 Mulliken charges:
               1
     1  C   -0.044600
     2  C   -0.083946
     3  H    0.026531
     4  H    0.029039
     5  H    0.029708
     6  C   -0.083946
     7  H    0.021364
     8  H    0.021905
     9  C   -0.044600
    10  H    0.021904
    11  H    0.021364
    12  H    0.026531
    13  H    0.029039
    14  H    0.029708
 Sum of Mulliken charges =   0.00000

 Dipole moment (field-independent basis, Debye):
    X=              0.0000    Y=              0.0695    Z=              0.0000  Tot=              0.0695
 Quadrupole moment (field-independent basis, Debye-Ang):
   XX=            -28.9465   YY=            -28.8353   ZZ=            -28.4200
   XY=              0.0000   XZ=             -0.0450   YZ=              0.0000

 Normal termination of Gaussian 09 at Tue Sep 21 15:22:40 2021.
