 Gaussian 09, Revision D.01,
 Gaussian 09:  AS64L-G09RevD.01 24-Apr-2013

 -------------------------------
 #n HF/cc-pvdz Opt=(MaxCyc=2000)
 -------------------------------

 ------------
 butane_3.log
 ------------
 Symbolic Z-matrix:
 Charge =  0 Multiplicity = 1

 SCF Done:  E(RHF) =  -157.309356997     A.U. after   10 cycles
 SCF Done:  E(RHF) =  -157.309921381     A.U. after    8 cycles
 SCF Done:  E(RHF) =  -157.310043377     A.U. after    8 cycles
 Optimization completed.
    -- Stationary point found.

                         Standard orientation:
 ---------------------------------------------------------------------
 Center     Atomic      Atomic             Coordinates (Angstroms)
 Number     Number       Type             X           Y           Z
 ---------------------------------------------------------------------
      1          6           0        1.955537   -0.121304    0.000217
      2          6           0        0.566585    0.512794   -0.000240
      3          1           0        2.102976   -0.749091    0.883296
      4          1           0        2.738684    0.640266   -0.000289
      5          1           0        2.103011   -0.750294   -0.882003
      6          6           0       -0.566585   -0.512793   -0.000240
      7          1           0        0.464481    1.162547   -0.876234
      8          1           0        0.464117    1.163006    0.875371
      9          6           0       -1.955537    0.121304    0.000217
     10          1           0       -0.464116   -1.163005    0.875372
     11          1           0       -0.464480   -1.162547   -0.876233
     12          1           0       -2.102984    0.749076    0.883305
     13          1           0       -2.738685   -0.640266   -0.000309
     14          1           0       -2.103005    0.750309   -0.881993
 ---------------------------------------------------------------------

 The electronic state is 1-A.
 Alpha  occ. eigenvalues --  -11.21992 -11.21932 -11.21626 -11.21626  -1.06978
 Alpha  occ. eigenvalues --   -0.98050  -0.86076  -0.78683  -0.63626  -0.58300
 Alpha  occ. eigenvalues --   -0.57318  -0.56582  -0.51320  -0.49339  -0.46759
 Alpha  occ. eigenvalues --   -0.45970  -0.45546
 Alpha virt. eigenvalues --    0.18404   0.20425   0.22271   0.22676   0.26655
 Alpha virt. eigenvalues --    0.27519   0.27979   0.29017   0.29806   0.30795
 Alpha virt. eigenvalues --    0.38882   0.39183   0.42506   0.58831   0.58835

 Mulliken charges:
               1
     1  C   -0.030282
     2  C   -0.096831
     3  H    0.026806
     4  H    0.028486
     5  H    0.026797
     6  C   -0.096831
     7  H    0.022516
     8  H    0.022508
     9  C   -0.030282
    10  H    0.022508
    11  H    0.022516
    12  H    0.026806
    13  H    0.028486
    14  H    0.026797
 Sum of Mulliken charges =   0.00000

 Dipole moment (field-independent basis, Debye):
    X=              0.0000    Y=              0.0000    Z=              0.0000  Tot=              0.0000
 Quadrupole moment (field-independent basis, Debye-Ang):
   XX=            -29.4711   YY=            -28.7660   ZZ=            -28.1257
   XY=              0.3259   XZ=              0.0000   YZ=              0.0000

 Normal termination of Gaussian 09 at Tue Sep 21 15:25:25 2021.
