 Gaussian 09, Revision D.01,
 Gaussian 09:  AS64L-G09RevD.01 24-Apr-2013

 -------------------------------
 #n HF/cc-pvdz Opt=(MaxCyc=2000)
 -------------------------------

 -----
 Title
 -----
 Symbolic Z-matrix:
 Charge =  0 Multiplicity = 1

 SCF Done:  E(RHF) =  -157.307925590     A.U. after   10 cycles
 SCF Done:  E(RHF) =  -157.308307913     A.U. after    9 cycles
 SCF Done:  E(RHF) =  -157.308380070     A.U. after    7 cycles
 SCF Done:  E(RHF) =  -157.308383438     A.U. after    7 cycles
 SCF Done:  E(RHF) =  -157.308384458     A.U. after    7 cycles
 SCF Done:  E(RHF) =  -157.308384513     A.U. after    6 cycles
 Optimization completed.
    -- Stationary point found.

                         Standard orientation:
 ---------------------------------------------------------------------
 Center     Atomic      Atomic             Coordinates (Angstroms)
 Number     Number       Type             X           Y           Z
 ---------------------------------------------------------------------
      1          6           0       -1.588087   -0.552233    0.122983
      2          6           0       -0.701606    0.615632   -0.306931
      3          1           0       -1.187077   -1.513754   -0.204759
      4          1           0       -2.590265   -0.454933   -0.301196
      5          1           0       -1.690896   -0.588151    1.211561
      6          6           0        0.701606    0.615632    0.306931
      7          1           0       -1.198143    1.552398   -0.035166
      8          1           0       -0.616666    0.624045   -1.399505
      9          6           0        1.588087   -0.552233   -0.122983
     10          1           0        0.616666    0.624045    1.399505
     11          1           0        1.198143    1.552398    0.035166
     12          1           0        1.187078   -1.513754    0.204760
     13          1           0        2.590266   -0.454932    0.301195
     14          1           0        1.690896   -0.588151   -1.211561
 ---------------------------------------------------------------------

 The electronic state is 1-A.
 Alpha  occ. eigenvalues --  -11.22017 -11.21959 -11.21586 -11.21586  -1.06921
 Alpha  occ. eigenvalues --   -0.97634  -0.87289  -0.77536  -0.62145  -0.61701
 Alpha  occ. eigenvalues --   -0.57256  -0.53232  -0.52961  -0.50235  -0.46048
 Alpha  occ. eigenvalues --   -0.45678  -0.45551
 Alpha virt. eigenvalues --    0.18052   0.21881   0.22104   0.22759   0.25980
 Alpha virt. eigenvalues --    0.27359   0.28314   0.28763   0.29014   0.31524
 Alpha virt. eigenvalues --    0.38426   0.39964   0.44337   0.57652   0.58744

 Mulliken charges:
               1
     1  C   -0.044599
     2  C   -0.083946
     3  H    0.029706
     4  H    0.029038
     5  H    0.026531
     6  C   -0.083946
     7  H    0.021904
     8  H    0.021364
     9  C   -0.044599
    10  H    0.021364
    11  H    0.021904
    12  H    0.029706
    13  H    0.029039
    14  H    0.026531
 Sum of Mulliken charges =   0.00000

 Dipole moment (field-independent basis, Debye):
    X=              0.0000    Y=              0.0695    Z=              0.0000  Tot=              0.0695
 Quadrupole moment (field-independent basis, Debye-Ang):
   XX=            -28.9466   YY=            -28.8352   ZZ=            -28.4200
   XY=              0.0000   XZ=              0.0450   YZ=              0.0000

 Normal termination of Gaussian 09 at Sun Sep 19 23:19:33 2021.
