 Gaussian 09, Revision D.01,
 Gaussian 09:  AS64L-G09RevD.01 24-Apr-2013

 ------------------------------------------------------------
 # opt=(modredundant,maxcyc=500) hf/cc-pvdz geom=connectivity
 ------------------------------------------------------------

 -----
 Title
 -----
 Symbolic Z-matrix:
 Charge =  0 Multiplicity = 1

 SCF Done:  E(RHF) =  -228.847027275     A.U. after   11 cycles
 Optimization completed.
    -- Stationary point found.
 SCF Done:  E(RHF) =  -228.847025530     A.U. after   11 cycles
 SCF Done:  E(RHF) =  -228.847026098     A.U. after    8 cycles
 SCF Done:  E(RHF) =  -228.847026344     A.U. after    8 cycles
 Optimization completed.
 SCF Done:  E(RHF) =  -228.847023030     A.U. after   11 cycles
 SCF Done:  E(RHF) =  -228.847023794     A.U. after    8 cycles
 SCF Done:  E(RHF) =  -228.847019094     A.U. after   11 cycles
 SCF Done:  E(RHF) =  -228.847020141     A.U. after    9 cycles
 SCF Done:  E(RHF) =  -228.847014545     A.U. after   11 cycles
 SCF Done:  E(RHF) =  -228.847015791     A.U. after    9 cycles
 SCF Done:  E(RHF) =  -228.847014334     A.U. after   10 cycles
 SCF Done:  E(RHF) =  -228.847015836     A.U. after    9 cycles
 SCF Done:  E(RHF) =  -228.847018949     A.U. after   11 cycles
 SCF Done:  E(RHF) =  -228.847020184     A.U. after    9 cycles
 SCF Done:  E(RHF) =  -228.847022861     A.U. after   11 cycles
 SCF Done:  E(RHF) =  -228.847023895     A.U. after    9 cycles
 SCF Done:  E(RHF) =  -228.847025491     A.U. after   11 cycles
 SCF Done:  E(RHF) =  -228.847026397     A.U. after    9 cycles
    -- Stationary point found.
 SCF Done:  E(RHF) =  -228.847026430     A.U. after   11 cycles
 SCF Done:  E(RHF) =  -228.847027274     A.U. after    8 cycles
 Optimization completed.
    -- Stationary point found.

                         Standard orientation:
 ---------------------------------------------------------------------
 Center     Atomic      Atomic             Coordinates (Angstroms)
 Number     Number       Type             X           Y           Z
 ---------------------------------------------------------------------
      1          6           0        1.722963    0.099687    0.000116
      2          8           0        0.470045   -0.515229   -0.000159
      3          1           0        2.448031   -0.712219    0.000062
      4          1           0        1.854590    0.714339    0.892182
      5          1           0        1.854842    0.714686   -0.891673
      6          8           0       -0.470045    0.515229   -0.000160
      7          6           0       -1.722963   -0.099687    0.000117
      8          1           0       -1.854842   -0.714687   -0.891670
      9          1           0       -2.448031    0.712219    0.000062
     10          1           0       -1.854590   -0.714337    0.892185
 ---------------------------------------------------------------------

 The electronic state is 1-A.
 Alpha  occ. eigenvalues --  -20.60769 -20.60735 -11.27754 -11.27754  -1.50156
 Alpha  occ. eigenvalues --   -1.23945  -0.93192  -0.89910  -0.69208  -0.68203
 Alpha  occ. eigenvalues --   -0.67450  -0.60207  -0.55562  -0.54927  -0.49841
 Alpha  occ. eigenvalues --   -0.48837  -0.40402
 Alpha virt. eigenvalues --    0.20104   0.20832   0.25253   0.26104   0.26492
 Alpha virt. eigenvalues --    0.28447   0.29757   0.32019   0.40532   0.62542
 Alpha virt. eigenvalues --    0.63156   0.64384   0.65597   0.73317   0.79284

 Mulliken charges:
               1
     1  C    0.205592
     2  O   -0.300284
     3  H    0.040244
     4  H    0.027221
     5  H    0.027228
     6  O   -0.300284
     7  C    0.205592
     8  H    0.027228
     9  H    0.040244
    10  H    0.027221
 Sum of Mulliken charges =   0.00000

 Dipole moment (field-independent basis, Debye):
    X=              0.0000    Y=              0.0000    Z=              0.0007  Tot=              0.0007
 Quadrupole moment (field-independent basis, Debye-Ang):
   XX=            -18.1028   YY=            -26.0222   ZZ=            -24.9968
   XY=              0.4879   XZ=              0.0000   YZ=              0.0000

 Normal termination of Gaussian 09 at Thu Oct  7 14:30:43 2021.
