 Gaussian 09, Revision D.01,
 Gaussian 09:  AS64L-G09RevD.01 24-Apr-2013

 ------------------------------
 #n hf/cc-pvdz Opt=(maxcyc=500)
 ------------------------------

 -----
 Title
 -----
 Symbolic Z-matrix:
 Charge =  0 Multiplicity = 1

 SCF Done:  E(RHF) =  -228.842726658     A.U. after   13 cycles
 SCF Done:  E(RHF) =  -228.846233544     A.U. after   11 cycles
 SCF Done:  E(RHF) =  -228.846925897     A.U. after   11 cycles
 SCF Done:  E(RHF) =  -228.847019004     A.U. after   10 cycles
 SCF Done:  E(RHF) =  -228.847024543     A.U. after    9 cycles
 SCF Done:  E(RHF) =  -228.847025653     A.U. after    9 cycles
 SCF Done:  E(RHF) =  -228.847025804     A.U. after    7 cycles
 SCF Done:  E(RHF) =  -228.847026209     A.U. after   10 cycles
 SCF Done:  E(RHF) =  -228.847027012     A.U. after   11 cycles
 SCF Done:  E(RHF) =  -228.847027254     A.U. after   10 cycles
 SCF Done:  E(RHF) =  -228.847027272     A.U. after    8 cycles
 SCF Done:  E(RHF) =  -228.847027275     A.U. after    7 cycles
 Optimization completed.
    -- Stationary point found.

                         Standard orientation:
 ---------------------------------------------------------------------
 Center     Atomic      Atomic             Coordinates (Angstroms)
 Number     Number       Type             X           Y           Z
 ---------------------------------------------------------------------
      1          6           0        1.722965    0.099691    0.000118
      2          8           0        0.470044   -0.515234   -0.000158
      3          1           0        2.448039   -0.712209    0.000095
      4          1           0        1.854575    0.714368    0.892167
      5          1           0        1.854833    0.714643   -0.891703
      6          8           0       -0.470044    0.515234   -0.000158
      7          6           0       -1.722965   -0.099691    0.000118
      8          1           0       -1.854832   -0.714645   -0.891702
      9          1           0       -2.448039    0.712209    0.000093
     10          1           0       -1.854576   -0.714366    0.892168
 ---------------------------------------------------------------------

 The electronic state is 1-A.
 Alpha  occ. eigenvalues --  -20.60769 -20.60735 -11.27754 -11.27754  -1.50155
 Alpha  occ. eigenvalues --   -1.23945  -0.93191  -0.89910  -0.69208  -0.68202
 Alpha  occ. eigenvalues --   -0.67450  -0.60208  -0.55562  -0.54927  -0.49841
 Alpha  occ. eigenvalues --   -0.48837  -0.40403
 Alpha virt. eigenvalues --    0.20104   0.20832   0.25253   0.26105   0.26492
 Alpha virt. eigenvalues --    0.28447   0.29757   0.32018   0.40531   0.62541
 Alpha virt. eigenvalues --    0.63157   0.64384   0.65597   0.73316   0.79284

 Mulliken charges:
               1
     1  C    0.205593
     2  O   -0.300289
     3  H    0.040243
     4  H    0.027224
     5  H    0.027229
     6  O   -0.300289
     7  C    0.205593
     8  H    0.027229
     9  H    0.040243
    10  H    0.027224
 Sum of Mulliken charges =   0.00000

 Dipole moment (field-independent basis, Debye):
    X=              0.0000    Y=              0.0000    Z=              0.0007  Tot=              0.0007
 Quadrupole moment (field-independent basis, Debye-Ang):
   XX=            -18.1028   YY=            -26.0222   ZZ=            -24.9967
   XY=              0.4879   XZ=              0.0000   YZ=              0.0000

 Normal termination of Gaussian 09 at Thu Oct  7 00:00:02 2021.
