 Gaussian 09, Revision D.01,
 Gaussian 09:  AS64L-G09RevD.01 24-Apr-2013

 ------------------------------------
 # scan rhf/cc-pvdz geom=connectivity
 ------------------------------------

 -------------------
 Title Card Required
 -------------------
 Symbolic Z-matrix:
 Charge =  0 Multiplicity = 1

 SCF Done:  E(RHF) =  -228.847027236     A.U. after   10 cycles

 The electronic state is 1-A.
 Alpha  occ. eigenvalues --  -20.60768 -20.60733 -11.27753 -11.27752  -1.50158
 Alpha  occ. eigenvalues --   -1.23939  -0.93191  -0.89912  -0.69209  -0.68201
 Alpha  occ. eigenvalues --   -0.67449  -0.60208  -0.55562  -0.54924  -0.49842
 Alpha  occ. eigenvalues --   -0.48840  -0.40402
 Alpha virt. eigenvalues --    0.20105   0.20833   0.25256   0.26105   0.26492
 Alpha virt. eigenvalues --    0.28447   0.29759   0.32017   0.40531   0.62543
 Alpha virt. eigenvalues --    0.63155   0.64384   0.65601   0.73316   0.79282

 Mulliken charges:
               1
     1  O   -0.300320
     2  O   -0.300331
     3  C    0.205635
     4  H    0.040235
     5  H    0.027236
     6  H    0.027219
     7  C    0.205639
     8  H    0.027219
     9  H    0.040227
    10  H    0.027240
 Sum of Mulliken charges =   0.00000

 Dipole moment (field-independent basis, Debye):
    X=              0.0000    Y=              0.0000    Z=              0.0021  Tot=              0.0021
 Quadrupole moment (field-independent basis, Debye-Ang):
   XX=            -18.1031   YY=            -26.0221   ZZ=            -24.9962
   XY=              0.4878   XZ=              0.0000   YZ=              0.0001

 SCF Done:  E(RHF) =  -228.847025383     A.U. after   11 cycles
 SCF Done:  E(RHF) =  -228.847020097     A.U. after   11 cycles
 SCF Done:  E(RHF) =  -228.847011565     A.U. after   11 cycles
 SCF Done:  E(RHF) =  -228.846999994     A.U. after   11 cycles
 SCF Done:  E(RHF) =  -228.846985471     A.U. after   11 cycles
 SCF Done:  E(RHF) =  -228.846967738     A.U. after   10 cycles
 SCF Done:  E(RHF) =  -228.846945878     A.U. after   10 cycles
 SCF Done:  E(RHF) =  -228.846917860     A.U. after   11 cycles
 SCF Done:  E(RHF) =  -228.846879852     A.U. after   11 cycles
 SCF Done:  E(RHF) =  -228.846881364     A.U. after   11 cycles
 SCF Done:  E(RHF) =  -228.846919104     A.U. after   11 cycles
 SCF Done:  E(RHF) =  -228.846946956     A.U. after   11 cycles
 SCF Done:  E(RHF) =  -228.846968692     A.U. after   10 cycles
 SCF Done:  E(RHF) =  -228.846986310     A.U. after   10 cycles
 SCF Done:  E(RHF) =  -228.847000704     A.U. after   11 cycles
 SCF Done:  E(RHF) =  -228.847012125     A.U. after   11 cycles
 SCF Done:  E(RHF) =  -228.847020485     A.U. after   11 cycles
 SCF Done:  E(RHF) =  -228.847025582     A.U. after   11 cycles

                         Standard orientation:
 ---------------------------------------------------------------------
 Center     Atomic      Atomic             Coordinates (Angstroms)
 Number     Number       Type             X           Y           Z
 ---------------------------------------------------------------------
      1          8           0       -0.469939    0.515285   -0.000461
      2          8           0        0.469938   -0.515278   -0.000461
      3          6           0        1.722911    0.099684    0.000339
      4          1           0        2.448057   -0.712121    0.000537
      5          1           0        1.854827    0.714727   -0.891356
      6          1           0        1.854058    0.714232    0.892481
      7          6           0       -1.722901   -0.099701    0.000331
      8          1           0       -1.854173   -0.714181    0.892523
      9          1           0       -2.447943    0.712186    0.000481
     10          1           0       -1.854876   -0.714790   -0.891311
 ---------------------------------------------------------------------

 SCF Done:  E(RHF) =  -228.847027236     A.U. after   11 cycles
 Normal termination of Gaussian 09 at Thu Oct  7 19:37:24 2021.
