 Gaussian 09, Revision D.01,
 Gaussian 09:  AS64L-G09RevD.01 24-Apr-2013

 ------------------------------------------------------------
 # opt=(modredundant,maxcyc=500) hf/cc-pvdz geom=connectivity
 ------------------------------------------------------------

 -----
 Title
 -----
 Symbolic Z-matrix:
 Charge =  0 Multiplicity = 1

 SCF Done:  E(RHF) =  -150.785411403     A.U. after   10 cycles
 Optimization completed.
    -- Stationary point found.
 SCF Done:  E(RHF) =  -150.785427823     A.U. after   10 cycles
 Optimization completed.
 SCF Done:  E(RHF) =  -150.785476213     A.U. after   10 cycles
 SCF Done:  E(RHF) =  -150.785554836     A.U. after   10 cycles
 SCF Done:  E(RHF) =  -150.785660705     A.U. after   10 cycles
 SCF Done:  E(RHF) =  -150.785789600     A.U. after   10 cycles
 SCF Done:  E(RHF) =  -150.785790182     A.U. after    8 cycles
 SCF Done:  E(RHF) =  -150.785935915     A.U. after   10 cycles
 SCF Done:  E(RHF) =  -150.785937175     A.U. after    8 cycles
 SCF Done:  E(RHF) =  -150.786093302     A.U. after   10 cycles
 SCF Done:  E(RHF) =  -150.785935494     A.U. after   10 cycles
 SCF Done:  E(RHF) =  -150.785937175     A.U. after    8 cycles
 SCF Done:  E(RHF) =  -150.785789074     A.U. after   10 cycles
 SCF Done:  E(RHF) =  -150.785790350     A.U. after    8 cycles
 SCF Done:  E(RHF) =  -150.785660267     A.U. after   10 cycles
 SCF Done:  E(RHF) =  -150.785661164     A.U. after    8 cycles
 SCF Done:  E(RHF) =  -150.785554507     A.U. after   10 cycles
 SCF Done:  E(RHF) =  -150.785476002     A.U. after   10 cycles
 SCF Done:  E(RHF) =  -150.785427728     A.U. after   10 cycles
    -- Stationary point found.
 SCF Done:  E(RHF) =  -150.785411470     A.U. after   10 cycles
 Optimization completed.
    -- Stationary point found.

                         Standard orientation:
 ---------------------------------------------------------------------
 Center     Atomic      Atomic             Coordinates (Angstroms)
 Number     Number       Type             X           Y           Z
 ---------------------------------------------------------------------
      1          8           0        0.000000    0.700825    0.000000
      2          8           0        0.000000   -0.700825    0.000000
      3          1           0       -0.930633    0.877314    0.000000
      4          1           0        0.930633   -0.877314    0.000000
 ---------------------------------------------------------------------

 The electronic state is 1-AG.
 Alpha  occ. eigenvalues --  -20.61476 -20.61443  -1.49325  -1.20471  -0.72956
 Alpha  occ. eigenvalues --   -0.68156  -0.63036  -0.53425  -0.43980
 Alpha virt. eigenvalues --    0.19597   0.20153   0.33942   0.82257   0.84608
 Alpha virt. eigenvalues --    1.08907   1.11469   1.15143   1.24838   1.25721
 Alpha virt. eigenvalues --    1.34779   1.53750   1.56152   1.58391   1.75588

 Mulliken charges:
               1
     1  O   -0.191820
     2  O   -0.191820
     3  H    0.191820
     4  H    0.191820
 Sum of Mulliken charges =   0.00000

 Dipole moment (field-independent basis, Debye):
    X=              0.0000    Y=              0.0000    Z=              0.0000  Tot=              0.0000
 Quadrupole moment (field-independent basis, Debye-Ang):
   XX=             -7.8207   YY=            -11.1808   ZZ=            -12.3404
   XY=             -3.5917   XZ=              0.0000   YZ=              0.0000

 Normal termination of Gaussian 09 at Thu Oct  7 12:47:41 2021.
