 Gaussian 09, Revision D.01,
 Gaussian 09:  AS64L-G09RevD.01 24-Apr-2013

 -----------------------------------
 # scan hf/cc-pvdz geom=connectivity
 -----------------------------------

 -----
 Title
 -----
 Symbolic Z-matrix:
 Charge =  0 Multiplicity = 1

 SCF Done:  E(RHF) =  -150.785411395     A.U. after   10 cycles

 The electronic state is 1-AG.
 Alpha  occ. eigenvalues --  -20.61476 -20.61443  -1.49324  -1.20462  -0.72954
 Alpha  occ. eigenvalues --   -0.68149  -0.63036  -0.53424  -0.43977
 Alpha virt. eigenvalues --    0.19594   0.20152   0.33945   0.82243   0.84591
 Alpha virt. eigenvalues --    1.08905   1.11470   1.15143   1.24841   1.25721
 Alpha virt. eigenvalues --    1.34778   1.53746   1.56149   1.58388   1.75588

 Mulliken charges:
               1
     1  O   -0.191927
     2  O   -0.191927
     3  H    0.191927
     4  H    0.191927
 Sum of Mulliken charges =   0.00000

 Dipole moment (field-independent basis, Debye):
    X=              0.0000    Y=              0.0000    Z=              0.0000  Tot=              0.0000
 Quadrupole moment (field-independent basis, Debye-Ang):
   XX=             -7.8195   YY=            -11.1817   ZZ=            -12.3407
   XY=              3.5917   XZ=              0.0000   YZ=              0.0000

 SCF Done:  E(RHF) =  -150.785427757     A.U. after   10 cycles
 SCF Done:  E(RHF) =  -150.785476103     A.U. after   10 cycles
 SCF Done:  E(RHF) =  -150.785554219     A.U. after   10 cycles
 SCF Done:  E(RHF) =  -150.785658443     A.U. after   10 cycles
 SCF Done:  E(RHF) =  -150.785783698     A.U. after   10 cycles
 SCF Done:  E(RHF) =  -150.785923562     A.U. after   10 cycles
 SCF Done:  E(RHF) =  -150.786070354     A.U. after   10 cycles
 SCF Done:  E(RHF) =  -150.786215263     A.U. after   10 cycles
 SCF Done:  E(RHF) =  -150.786348511     A.U. after   10 cycles
 SCF Done:  E(RHF) =  -150.786348511     A.U. after   10 cycles
 SCF Done:  E(RHF) =  -150.786215263     A.U. after   10 cycles
 SCF Done:  E(RHF) =  -150.786070354     A.U. after   10 cycles
 SCF Done:  E(RHF) =  -150.785923562     A.U. after   10 cycles
 SCF Done:  E(RHF) =  -150.785783698     A.U. after   10 cycles
 SCF Done:  E(RHF) =  -150.785658443     A.U. after   10 cycles
 SCF Done:  E(RHF) =  -150.785554219     A.U. after   10 cycles
 SCF Done:  E(RHF) =  -150.785476103     A.U. after   10 cycles
 SCF Done:  E(RHF) =  -150.785427757     A.U. after   10 cycles

                         Standard orientation:
 ---------------------------------------------------------------------
 Center     Atomic      Atomic             Coordinates (Angstroms)
 Number     Number       Type             X           Y           Z
 ---------------------------------------------------------------------
      1          8           0        0.000000    0.700800    0.000000
      2          8           0        0.000000   -0.700800    0.000000
      3          1           0       -0.930825    0.877243    0.000000
      4          1           0        0.930825   -0.877243    0.000000
 ---------------------------------------------------------------------

 SCF Done:  E(RHF) =  -150.785411395     A.U. after   10 cycles
 Normal termination of Gaussian 09 at Thu Oct  7 13:31:16 2021.
