 Gaussian 09, Revision D.01,
 Gaussian 09:  AS64L-G09RevD.01 24-Apr-2013

 ------------------------------
 #n hf/cc-pvdz Opt=(maxcyc=500)
 ------------------------------

 -----
 Title
 -----
 Symbolic Z-matrix:
 Charge =  0 Multiplicity = 1

 SCF Done:  E(RHF) =  -150.781402469     A.U. after   10 cycles
 SCF Done:  E(RHF) =  -150.785047496     A.U. after   10 cycles
 SCF Done:  E(RHF) =  -150.785239830     A.U. after    8 cycles
 SCF Done:  E(RHF) =  -150.785411404     A.U. after    8 cycles
 Optimization completed.
    -- Stationary point found.

                         Standard orientation:
 ---------------------------------------------------------------------
 Center     Atomic      Atomic             Coordinates (Angstroms)
 Number     Number       Type             X           Y           Z
 ---------------------------------------------------------------------
      1          8           0        0.000000    0.700788    0.000000
      2          8           0        0.000000   -0.700788    0.000000
      3          1           0        0.930809    0.877229    0.000000
      4          1           0       -0.930809   -0.877229    0.000000
 ---------------------------------------------------------------------

 The electronic state is 1-AG.
 Alpha  occ. eigenvalues --  -20.61476 -20.61443  -1.49325  -1.20462  -0.72954
 Alpha  occ. eigenvalues --   -0.68150  -0.63037  -0.53424  -0.43977
 Alpha virt. eigenvalues --    0.19595   0.20153   0.33947   0.82244   0.84593
 Alpha virt. eigenvalues --    1.08904   1.11470   1.15144   1.24840   1.25721
 Alpha virt. eigenvalues --    1.34777   1.53746   1.56150   1.58389   1.75588

 Mulliken charges:
               1
     1  O   -0.191915
     2  O   -0.191915
     3  H    0.191915
     4  H    0.191915
 Sum of Mulliken charges =   0.00000

 Dipole moment (field-independent basis, Debye):
    X=              0.0000    Y=              0.0000    Z=              0.0000  Tot=              0.0000
 Quadrupole moment (field-independent basis, Debye-Ang):
   XX=             -7.8196   YY=            -11.1817   ZZ=            -12.3406
   XY=              3.5916   XZ=              0.0000   YZ=              0.0000

 Normal termination of Gaussian 09 at Wed Oct  6 23:59:36 2021.
