 Gaussian 09, Revision D.01,
 Gaussian 09:  AS64L-G09RevD.01 24-Apr-2013

 ---------------------------------
 #P hf/cc-pvdz Opt=z-matrix nosymm
 ---------------------------------

 -----
 Title
 -----
 Symbolic Z-matrix:
 Charge =  0 Multiplicity = 1

 SCF Done:  E(RHF) =  -150.781402469     A.U. after   10 cycles
 SCF Done:  E(RHF) =  -150.785020067     A.U. after   10 cycles
 SCF Done:  E(RHF) =  -150.785397200     A.U. after    8 cycles
 SCF Done:  E(RHF) =  -150.785411451     A.U. after    7 cycles
 Optimization completed.
    -- Stationary point found.

                          Input orientation:
 ---------------------------------------------------------------------
 Center     Atomic      Atomic             Coordinates (Angstroms)
 Number     Number       Type             X           Y           Z
 ---------------------------------------------------------------------
      1          8           0        0.022901    0.000000    0.026249
      2          8           0       -0.022901    0.000000    1.427061
      3          1           0        0.958879    0.000000   -0.119688
      4          1           0       -0.958879    0.000000    1.572998
 ---------------------------------------------------------------------

 Alpha  occ. eigenvalues --  -20.61475 -20.61442  -1.49328  -1.20466  -0.72957
 Alpha  occ. eigenvalues --   -0.68154  -0.63038  -0.53425  -0.43977
 Alpha virt. eigenvalues --    0.19596   0.20154   0.33948   0.82253   0.84601
 Alpha virt. eigenvalues --    1.08904   1.11469   1.15144   1.24839   1.25721
 Alpha virt. eigenvalues --    1.34777   1.53747   1.56152   1.58390   1.75589

 Mulliken charges:
               1
     1  O   -0.191853
     2  O   -0.191853
     3  H    0.191853
     4  H    0.191853
 Sum of Mulliken charges =   0.00000

 Dipole moment (field-independent basis, Debye):
    X=              0.0000    Y=              0.0000    Z=              0.0000  Tot=              0.0000
 Quadrupole moment (field-independent basis, Debye-Ang):
   XX=             -7.5891   YY=            -12.3404   ZZ=            -11.4125
   XY=              0.0000   XZ=             -3.4740   YZ=              0.0000

 Normal termination of Gaussian 09 at Thu Oct  7 01:18:22 2021.
