 Gaussian 09, Revision D.01,
 Gaussian 09:  AS64L-G09RevD.01 24-Apr-2013

 ---------------------------------
 # scan hf/3-21g geom=connectivity
 ---------------------------------

 -------------------
 Title Card Required
 -------------------
 Symbolic Z-matrix:
 Charge =  0 Multiplicity = 1

 SCF Done:  E(RHF) =  -149.922309884     A.U. after   10 cycles

 The electronic state is 1-A.
 Alpha  occ. eigenvalues --  -20.50286 -20.50276  -1.52989  -1.17974  -0.75372
 Alpha  occ. eigenvalues --   -0.68400  -0.61162  -0.45967  -0.45398
 Alpha virt. eigenvalues --    0.26576   0.26770   0.45711   1.21079   1.25075
 Alpha virt. eigenvalues --    1.71610   1.74311   1.84366   1.94590   1.99767
 Alpha virt. eigenvalues --    2.06812   2.96825   3.35804

 Mulliken charges:
               1
     1  O   -0.402170
     2  H    0.402170
     3  O   -0.402170
     4  H    0.402170
 Sum of Mulliken charges =   0.00000

 Dipole moment (field-independent basis, Debye):
    X=              0.0000    Y=              0.0000    Z=              2.8494  Tot=              2.8494
 Quadrupole moment (field-independent basis, Debye-Ang):
   XX=            -10.0301   YY=            -10.3944   ZZ=            -10.4466
   XY=              2.8772   XZ=              0.0000   YZ=              0.0000

 SCF Done:  E(RHF) =  -149.922748164     A.U. after   10 cycles
 SCF Done:  E(RHF) =  -149.923057052     A.U. after   10 cycles
 SCF Done:  E(RHF) =  -149.923242539     A.U. after   10 cycles
 SCF Done:  E(RHF) =  -149.923313434     A.U. after   10 cycles
 SCF Done:  E(RHF) =  -149.923280992     A.U. after   10 cycles
 SCF Done:  E(RHF) =  -149.923158517     A.U. after   10 cycles
 SCF Done:  E(RHF) =  -149.922960922     A.U. after   10 cycles
 SCF Done:  E(RHF) =  -149.922704278     A.U. after   10 cycles
 SCF Done:  E(RHF) =  -149.922405344     A.U. after   10 cycles

                         Standard orientation:
 ---------------------------------------------------------------------
 Center     Atomic      Atomic             Coordinates (Angstroms)
 Number     Number       Type             X           Y           Z
 ---------------------------------------------------------------------
      1          8           0        0.000000    0.660000   -0.034390
      2          1           0        0.850362    0.980455    0.275117
      3          8           0        0.000000   -0.660000   -0.034390
      4          1           0       -0.850362   -0.980455    0.275117
 ---------------------------------------------------------------------

 SCF Done:  E(RHF) =  -149.922081093     A.U. after   10 cycles
 Normal termination of Gaussian 09 at Thu Oct  7 01:24:10 2021.
