 Gaussian 09, Revision D.01,
 Gaussian 09:  AS64L-G09RevD.01 24-Apr-2013

 --------------------------------------------
 #P hf/cc-pvdz geom=connectivity opt=z-matrix
 --------------------------------------------

 -------------------
 Title Card Required
 -------------------
 Symbolic Z-matrix:
 Charge =  0 Multiplicity = 1

 SCF Done:  E(RHF) =  -150.780383007     A.U. after   11 cycles
 SCF Done:  E(RHF) =  -150.785495036     A.U. after   11 cycles
 SCF Done:  E(RHF) =  -150.786462041     A.U. after   12 cycles
 SCF Done:  E(RHF) =  -150.786728574     A.U. after   10 cycles
 SCF Done:  E(RHF) =  -150.786764261     A.U. after   10 cycles
 SCF Done:  E(RHF) =  -150.786766589     A.U. after    9 cycles
 SCF Done:  E(RHF) =  -150.786766845     A.U. after    9 cycles
 Optimization completed.
    -- Stationary point found.

                         Standard orientation:
 ---------------------------------------------------------------------
 Center     Atomic      Atomic             Coordinates (Angstroms)
 Number     Number       Type             X           Y           Z
 ---------------------------------------------------------------------
      1          8           0        0.686736    0.115028   -0.055274
      2          1           0        1.015853   -0.622089    0.442189
      3          8           0       -0.686736   -0.115028   -0.055274
      4          1           0       -1.015853    0.622089    0.442189
 ---------------------------------------------------------------------

 The electronic state is 1-A.
 Alpha  occ. eigenvalues --  -20.61668 -20.61634  -1.49839  -1.20367  -0.72457
 Alpha  occ. eigenvalues --   -0.71205  -0.61579  -0.50413  -0.46658
 Alpha virt. eigenvalues --    0.19191   0.20070   0.34772   0.83402   0.84083
 Alpha virt. eigenvalues --    1.11965   1.14237   1.15297   1.21683   1.28060
 Alpha virt. eigenvalues --    1.33091   1.47283   1.51117   1.65388   1.67983

 Mulliken charges:
               1
     1  O   -0.188443
     2  H    0.188443
     3  O   -0.188443
     4  H    0.188443
 Sum of Mulliken charges =   0.00000

 Dipole moment (field-independent basis, Debye):
    X=              0.0000    Y=              0.0000    Z=              1.8944  Tot=              1.8944
 Quadrupole moment (field-independent basis, Debye-Ang):
   XX=            -10.0051   YY=            -10.2218   ZZ=            -11.2807
   XY=             -3.1932   XZ=              0.0000   YZ=              0.0000

 Normal termination of Gaussian 09 at Thu Oct  7 12:46:23 2021.
