 Gaussian 09, Revision D.01,
 Gaussian 09:  AS64L-G09RevD.01 24-Apr-2013

 ------------------------------
 #n HF/cc-pvdz Opt=(MaxCyc=500)
 ------------------------------

 -----
 Title
 -----
 Symbolic Z-matrix:
 Charge =  0 Multiplicity = 1

 SCF Done:  E(RHF) =  -113.874018720     A.U. after   11 cycles
 SCF Done:  E(RHF) =  -113.877164348     A.U. after   10 cycles
 SCF Done:  E(RHF) =  -113.877220595     A.U. after    9 cycles
 SCF Done:  E(RHF) =  -113.877222713     A.U. after    8 cycles
 Optimization completed.
    -- Stationary point found.

                         Standard orientation:
 ---------------------------------------------------------------------
 Center     Atomic      Atomic             Coordinates (Angstroms)
 Number     Number       Type             X           Y           Z
 ---------------------------------------------------------------------
      1          6           0        0.000000    0.000000   -0.517662
      2          8           0        0.000000    0.000000    0.664385
      3          1           0        0.000000    0.932451   -1.104553
      4          1           0        0.000000   -0.932451   -1.104553
 ---------------------------------------------------------------------

 The electronic state is 1-A1.
 Alpha  occ. eigenvalues --  -20.57452 -11.34120  -1.41926  -0.86256  -0.69328
 Alpha  occ. eigenvalues --   -0.65290  -0.53938  -0.43222
 Alpha virt. eigenvalues --    0.14309   0.19097   0.26052   0.36228   0.66781
 Alpha virt. eigenvalues --    0.67287   0.74013   0.81915   0.91755   0.98246
 Alpha virt. eigenvalues --    1.10286   1.15790   1.28995   1.32359   1.42190

 Mulliken charges:
               1
     1  C    0.237668
     2  O   -0.280917
     3  H    0.021624
     4  H    0.021624
 Sum of Mulliken charges =   0.00000

 Dipole moment (field-independent basis, Debye):
    X=              0.0000    Y=              0.0000    Z=             -2.5683  Tot=              2.5683
 Quadrupole moment (field-independent basis, Debye-Ang):
   XX=            -11.4401   YY=            -11.4152   ZZ=            -11.8743
   XY=              0.0000   XZ=              0.0000   YZ=              0.0000

 Normal termination of Gaussian 09 at Sun Sep 19 18:38:09 2021.
